 Entering Gaussian System, Link 0=g09
 Input=final_drug_opt.gjf
 Output=final_drug_opt.log
 Initial command:
 /home/sugarlin1732/bin/g09c01//g09/l1.exe /work1/sugarlin1732/Docking/Gau-1183.inp -scrdir=/work1/sugarlin1732/Docking/
 Entering Link 1 = /home/sugarlin1732/bin/g09c01//g09/l1.exe PID=      1184.
  
 Copyright (c) 1988,1990,1992,1993,1995,1998,2003,2009,2011,
            Gaussian, Inc.  All Rights Reserved.
  
 This is part of the Gaussian(R) 09 program.  It is based on
 the Gaussian(R) 03 system (copyright 2003, Gaussian, Inc.),
 the Gaussian(R) 98 system (copyright 1998, Gaussian, Inc.),
 the Gaussian(R) 94 system (copyright 1995, Gaussian, Inc.),
 the Gaussian 92(TM) system (copyright 1992, Gaussian, Inc.),
 the Gaussian 90(TM) system (copyright 1990, Gaussian, Inc.),
 the Gaussian 88(TM) system (copyright 1988, Gaussian, Inc.),
 the Gaussian 86(TM) system (copyright 1986, Carnegie Mellon
 University), and the Gaussian 82(TM) system (copyright 1983,
 Carnegie Mellon University). Gaussian is a federally registered
 trademark of Gaussian, Inc.
  
 This software contains proprietary and confidential information,
 including trade secrets, belonging to Gaussian, Inc.
  
 This software is provided under written license and may be
 used, copied, transmitted, or stored only in accord with that
 written license.
  
 The following legend is applicable only to US Government
 contracts under FAR:
  
                    RESTRICTED RIGHTS LEGEND
  
 Use, reproduction and disclosure by the US Government is
 subject to restrictions as set forth in subparagraphs (a)
 and (c) of the Commercial Computer Software - Restricted
 Rights clause in FAR 52.227-19.
  
 Gaussian, Inc.
 340 Quinnipiac St., Bldg. 40, Wallingford CT 06492
  
  
 ---------------------------------------------------------------
 Warning -- This program may not be used in any manner that
 competes with the business of Gaussian, Inc. or will provide
 assistance to any competitor of Gaussian, Inc.  The licensee
 of this program is prohibited from giving any competitor of
 Gaussian, Inc. access to this program.  By using this program,
 the user acknowledges that Gaussian, Inc. is engaged in the
 business of creating and licensing software in the field of
 computational chemistry and represents and warrants to the
 licensee that it is not a competitor of Gaussian, Inc. and that
 it will not use this program in any manner prohibited above.
 ---------------------------------------------------------------
  

 Cite this work as:
 Gaussian 09, Revision C.01,
 M. J. Frisch, G. W. Trucks, H. B. Schlegel, G. E. Scuseria, 
 M. A. Robb, J. R. Cheeseman, G. Scalmani, V. Barone, B. Mennucci, 
 G. A. Petersson, H. Nakatsuji, M. Caricato, X. Li, H. P. Hratchian, 
 A. F. Izmaylov, J. Bloino, G. Zheng, J. L. Sonnenberg, M. Hada, 
 M. Ehara, K. Toyota, R. Fukuda, J. Hasegawa, M. Ishida, T. Nakajima, 
 Y. Honda, O. Kitao, H. Nakai, T. Vreven, J. A. Montgomery, Jr., 
 J. E. Peralta, F. Ogliaro, M. Bearpark, J. J. Heyd, E. Brothers, 
 K. N. Kudin, V. N. Staroverov, T. Keith, R. Kobayashi, J. Normand, 
 K. Raghavachari, A. Rendell, J. C. Burant, S. S. Iyengar, J. Tomasi, 
 M. Cossi, N. Rega, J. M. Millam, M. Klene, J. E. Knox, J. B. Cross, 
 V. Bakken, C. Adamo, J. Jaramillo, R. Gomperts, R. E. Stratmann, 
 O. Yazyev, A. J. Austin, R. Cammi, C. Pomelli, J. W. Ochterski, 
 R. L. Martin, K. Morokuma, V. G. Zakrzewski, G. A. Voth, 
 P. Salvador, J. J. Dannenberg, S. Dapprich, A. D. Daniels, 
 O. Farkas, J. B. Foresman, J. V. Ortiz, J. Cioslowski, 
 and D. J. Fox, Gaussian, Inc., Wallingford CT, 2010.
 
 ******************************************
 Gaussian 09:  EM64L-G09RevC.01 23-Sep-2011
                16-Oct-2018 
 ******************************************
 %chk=final_drug_opt.chk
 %nproc=8
 Will use up to    8 processors via shared memory.
 %mem=4GB
 --------------------------------------
 # RHF/6-31G* Opt=(Redundant) SCF=Tight
 --------------------------------------
 1/18=20,19=15,38=1/1,3;
 2/9=110,12=2,17=6,18=5,40=1/2;
 3/5=1,6=6,7=1,11=1,16=1,25=1,30=1,71=1,116=1/1,2,3;
 4//1;
 5/5=2,32=2,38=5/2;
 6/7=2,8=2,9=2,10=2,28=1/1;
 7//1,2,3,16;
 1/18=20,19=15/3(2);
 2/9=110/2;
 99//99;
 2/9=110/2;
 3/5=1,6=6,7=1,11=1,16=1,25=1,30=1,71=1,116=1/1,2,3;
 4/5=5,16=3/1;
 5/5=2,32=2,38=5/2;
 7//1,2,3,16;
 1/18=20,19=15/3(-5);
 2/9=110/2;
 6/7=2,8=2,9=2,10=2,19=2,28=1/1;
 99/9=1/99;
 -----------------------------------------------------------------
 <qmtool> simtype="Geometry optimization" </qmtool> final_drug_opt
 -----------------------------------------------------------------
 Charge =  0 Multiplicity = 1
 Symbolic Z-Matrix:
 C1                    8.639    -8.54      1.46 
 C2                    8.349    -7.777     0.159 
 C3                    10.139   -8.858     1.549 
 C4                    9.154    -6.468     0.145 
 C5                    10.94    -7.546     1.528 
 C6                    10.659   -6.782     0.222 
 C7                    10.549   -9.722     0.345 
 C8                    10.265   -8.961    -0.961 
 C9                    8.766    -8.635    -1.046 
 C10                   11.101   -7.665    -0.958 
 C11                   11.822   -7.227    -3.262 
 C12                   11.621   -6.389    -4.522 
 O13                   12.64    -8.118    -3.263 
 N14                   10.91    -5.131    -4.292 
 C15                   9.965    -4.934    -5.384 
 C16                   9.493    -6.346    -5.698 
 C17                   10.784   -7.161    -5.575 
 C18                   11.796   -4.011    -4.016 
 C19                   11.081   -2.74     -3.567 
 C20                   10.268   -2.86     -2.274 
 C21                   10.033   -1.404    -1.833 
 C22                   11.205   -0.585    -2.437 
 C23                   12.047   -1.591    -3.244 
 N24                   11.03    -6.941    -2.218 
 H25                   8.06     -9.461     1.489 
 H26                   8.33     -7.947     2.319 
 H27                   7.286    -7.55      0.097 
 H28                   10.346   -9.395     2.472 
 H29                   8.915    -5.895    -0.749 
 H30                   8.872    -5.842     0.99 
 H31                   12.004   -7.754     1.617 
 H32                   10.667   -6.927     2.38 
 H33                   11.233   -5.859     0.209 
 H34                   9.998    -10.66     0.353 
 H35                   11.605   -9.977     0.406 
 H36                   10.566   -9.565    -1.811 
 H37                   8.191    -9.56     -1.063 
 H38                   8.544    -8.113    -1.973 
 H39                   12.142   -7.936    -0.825 
 H40                   12.623   -6.217    -4.907 
 H41                   9.157    -4.276    -5.085 
 H42                   10.449   -4.491    -6.261 
 H43                   8.764    -6.664    -4.958 
 H44                   9.033    -6.429    -6.677 
 H45                   10.618   -8.193    -5.293 
 H46                   11.314   -7.169    -6.52 
 H47                   12.481   -4.316    -3.23 
 H48                   12.408   -3.784    -4.896 
 H49                   10.417   -2.403    -4.362 
 H50                   10.861   -3.388    -1.528 
 H51                   9.343    -3.412    -2.399 
 H52                   9.084    -1.044    -2.222 
 H53                   9.981    -1.313    -0.753 
 H54                   10.825    0.198    -3.085 
 H55                   11.797   -0.095    -1.671 
 H56                   12.865   -1.971    -2.634 
 H57                   12.49    -1.149    -4.131 
 H58                   10.425   -6.161    -2.332 
 

 GradGradGradGradGradGradGradGradGradGradGradGradGradGradGradGradGradGrad
 Berny optimization.
 Initialization pass.
                           ----------------------------
                           !    Initial Parameters    !
                           ! (Angstroms and Degrees)  !
 --------------------------                            --------------------------
 ! Name  Definition              Value          Derivative Info.                !
 --------------------------------------------------------------------------------
 ! R1    R(1,2)                  1.5359         estimate D2E/DX2                !
 ! R2    R(1,3)                  1.5359         estimate D2E/DX2                !
 ! R3    R(1,25)                 1.0883         estimate D2E/DX2                !
 ! R4    R(1,26)                 1.0886         estimate D2E/DX2                !
 ! R5    R(2,4)                  1.5368         estimate D2E/DX2                !
 ! R6    R(2,9)                  1.5369         estimate D2E/DX2                !
 ! R7    R(2,27)                 1.0887         estimate D2E/DX2                !
 ! R8    R(3,5)                  1.5373         estimate D2E/DX2                !
 ! R9    R(3,7)                  1.5376         estimate D2E/DX2                !
 ! R10   R(3,28)                 1.0877         estimate D2E/DX2                !
 ! R11   R(4,6)                  1.5393         estimate D2E/DX2                !
 ! R12   R(4,29)                 1.0884         estimate D2E/DX2                !
 ! R13   R(4,30)                 1.0888         estimate D2E/DX2                !
 ! R14   R(5,6)                  1.5389         estimate D2E/DX2                !
 ! R15   R(5,31)                 1.0878         estimate D2E/DX2                !
 ! R16   R(5,32)                 1.0879         estimate D2E/DX2                !
 ! R17   R(6,10)                 1.5387         estimate D2E/DX2                !
 ! R18   R(6,33)                 1.087          estimate D2E/DX2                !
 ! R19   R(7,8)                  1.538          estimate D2E/DX2                !
 ! R20   R(7,34)                 1.0879         estimate D2E/DX2                !
 ! R21   R(7,35)                 1.0881         estimate D2E/DX2                !
 ! R22   R(8,9)                  1.5364         estimate D2E/DX2                !
 ! R23   R(8,10)                 1.5422         estimate D2E/DX2                !
 ! R24   R(8,36)                 1.0853         estimate D2E/DX2                !
 ! R25   R(9,37)                 1.0893         estimate D2E/DX2                !
 ! R26   R(9,38)                 1.0868         estimate D2E/DX2                !
 ! R27   R(10,24)                1.4549         estimate D2E/DX2                !
 ! R28   R(10,39)                1.0839         estimate D2E/DX2                !
 ! R29   R(11,12)                1.5265         estimate D2E/DX2                !
 ! R30   R(11,13)                1.2095         estimate D2E/DX2                !
 ! R31   R(11,24)                1.3413         estimate D2E/DX2                !
 ! R32   R(12,14)                1.4632         estimate D2E/DX2                !
 ! R33   R(12,17)                1.5509         estimate D2E/DX2                !
 ! R34   R(12,40)                1.0871         estimate D2E/DX2                !
 ! R35   R(14,15)                1.4575         estimate D2E/DX2                !
 ! R36   R(14,18)                1.4545         estimate D2E/DX2                !
 ! R37   R(15,16)                1.5216         estimate D2E/DX2                !
 ! R38   R(15,41)                1.0841         estimate D2E/DX2                !
 ! R39   R(15,42)                1.0953         estimate D2E/DX2                !
 ! R40   R(16,17)                1.5317         estimate D2E/DX2                !
 ! R41   R(16,43)                1.0864         estimate D2E/DX2                !
 ! R42   R(16,44)                1.0849         estimate D2E/DX2                !
 ! R43   R(17,45)                1.0826         estimate D2E/DX2                !
 ! R44   R(17,46)                1.0835         estimate D2E/DX2                !
 ! R45   R(18,19)                1.5259         estimate D2E/DX2                !
 ! R46   R(18,47)                1.0863         estimate D2E/DX2                !
 ! R47   R(18,48)                1.0957         estimate D2E/DX2                !
 ! R48   R(19,20)                1.5321         estimate D2E/DX2                !
 ! R49   R(19,23)                1.5355         estimate D2E/DX2                !
 ! R50   R(19,49)                1.0893         estimate D2E/DX2                !
 ! R51   R(20,21)                1.5394         estimate D2E/DX2                !
 ! R52   R(20,50)                1.0895         estimate D2E/DX2                !
 ! R53   R(20,51)                1.0844         estimate D2E/DX2                !
 ! R54   R(21,22)                1.5521         estimate D2E/DX2                !
 ! R55   R(21,52)                1.087          estimate D2E/DX2                !
 ! R56   R(21,53)                1.0851         estimate D2E/DX2                !
 ! R57   R(22,23)                1.5402         estimate D2E/DX2                !
 ! R58   R(22,54)                1.0851         estimate D2E/DX2                !
 ! R59   R(22,55)                1.085          estimate D2E/DX2                !
 ! R60   R(23,56)                1.0889         estimate D2E/DX2                !
 ! R61   R(23,57)                1.0855         estimate D2E/DX2                !
 ! R62   R(24,58)                0.9937         estimate D2E/DX2                !
 ! A1    A(2,1,3)              109.6543         estimate D2E/DX2                !
 ! A2    A(2,1,25)             110.0321         estimate D2E/DX2                !
 ! A3    A(2,1,26)             110.1336         estimate D2E/DX2                !
 ! A4    A(3,1,25)             110.0495         estimate D2E/DX2                !
 ! A5    A(3,1,26)             110.1377         estimate D2E/DX2                !
 ! A6    A(25,1,26)            106.7962         estimate D2E/DX2                !
 ! A7    A(1,2,4)              109.3881         estimate D2E/DX2                !
 ! A8    A(1,2,9)              109.6076         estimate D2E/DX2                !
 ! A9    A(1,2,27)             109.644          estimate D2E/DX2                !
 ! A10   A(4,2,9)              109.0413         estimate D2E/DX2                !
 ! A11   A(4,2,27)             109.4708         estimate D2E/DX2                !
 ! A12   A(9,2,27)             109.6735         estimate D2E/DX2                !
 ! A13   A(1,3,5)              109.3514         estimate D2E/DX2                !
 ! A14   A(1,3,7)              109.3525         estimate D2E/DX2                !
 ! A15   A(1,3,28)             109.7088         estimate D2E/DX2                !
 ! A16   A(5,3,7)              109.2642         estimate D2E/DX2                !
 ! A17   A(5,3,28)             109.4975         estimate D2E/DX2                !
 ! A18   A(7,3,28)             109.6515         estimate D2E/DX2                !
 ! A19   A(2,4,6)              109.751          estimate D2E/DX2                !
 ! A20   A(2,4,29)             109.9302         estimate D2E/DX2                !
 ! A21   A(2,4,30)             110.3036         estimate D2E/DX2                !
 ! A22   A(6,4,29)             111.2942         estimate D2E/DX2                !
 ! A23   A(6,4,30)             109.3715         estimate D2E/DX2                !
 ! A24   A(29,4,30)            106.1353         estimate D2E/DX2                !
 ! A25   A(3,5,6)              109.8853         estimate D2E/DX2                !
 ! A26   A(3,5,31)             110.2022         estimate D2E/DX2                !
 ! A27   A(3,5,32)             110.1288         estimate D2E/DX2                !
 ! A28   A(6,5,31)             110.0575         estimate D2E/DX2                !
 ! A29   A(6,5,32)             109.6529         estimate D2E/DX2                !
 ! A30   A(31,5,32)            106.868          estimate D2E/DX2                !
 ! A31   A(4,6,5)              108.7985         estimate D2E/DX2                !
 ! A32   A(4,6,10)             111.073          estimate D2E/DX2                !
 ! A33   A(4,6,33)             110.0276         estimate D2E/DX2                !
 ! A34   A(5,6,10)             108.2687         estimate D2E/DX2                !
 ! A35   A(5,6,33)             109.5894         estimate D2E/DX2                !
 ! A36   A(10,6,33)            109.0523         estimate D2E/DX2                !
 ! A37   A(3,7,8)              109.7338         estimate D2E/DX2                !
 ! A38   A(3,7,34)             110.1013         estimate D2E/DX2                !
 ! A39   A(3,7,35)             110.2785         estimate D2E/DX2                !
 ! A40   A(8,7,34)             109.837          estimate D2E/DX2                !
 ! A41   A(8,7,35)             110.0466         estimate D2E/DX2                !
 ! A42   A(34,7,35)            106.8026         estimate D2E/DX2                !
 ! A43   A(7,8,9)              109.3982         estimate D2E/DX2                !
 ! A44   A(7,8,10)             108.3035         estimate D2E/DX2                !
 ! A45   A(7,8,36)             109.7835         estimate D2E/DX2                !
 ! A46   A(9,8,10)             110.5286         estimate D2E/DX2                !
 ! A47   A(9,8,36)             110.2028         estimate D2E/DX2                !
 ! A48   A(10,8,36)            108.5933         estimate D2E/DX2                !
 ! A49   A(2,9,8)              109.8647         estimate D2E/DX2                !
 ! A50   A(2,9,37)             110.0647         estimate D2E/DX2                !
 ! A51   A(2,9,38)             110.1941         estimate D2E/DX2                !
 ! A52   A(8,9,37)             109.6152         estimate D2E/DX2                !
 ! A53   A(8,9,38)             110.39           estimate D2E/DX2                !
 ! A54   A(37,9,38)            106.6626         estimate D2E/DX2                !
 ! A55   A(6,10,8)             109.1489         estimate D2E/DX2                !
 ! A56   A(6,10,24)            111.3808         estimate D2E/DX2                !
 ! A57   A(6,10,39)            108.9824         estimate D2E/DX2                !
 ! A58   A(8,10,24)            112.9563         estimate D2E/DX2                !
 ! A59   A(8,10,39)            108.1045         estimate D2E/DX2                !
 ! A60   A(24,10,39)           106.1142         estimate D2E/DX2                !
 ! A61   A(12,11,13)           119.5217         estimate D2E/DX2                !
 ! A62   A(12,11,24)           116.5941         estimate D2E/DX2                !
 ! A63   A(13,11,24)           123.8524         estimate D2E/DX2                !
 ! A64   A(11,12,14)           113.967          estimate D2E/DX2                !
 ! A65   A(11,12,17)           110.9907         estimate D2E/DX2                !
 ! A66   A(11,12,40)           104.9402         estimate D2E/DX2                !
 ! A67   A(14,12,17)           105.8096         estimate D2E/DX2                !
 ! A68   A(14,12,40)           111.5624         estimate D2E/DX2                !
 ! A69   A(17,12,40)           109.617          estimate D2E/DX2                !
 ! A70   A(12,14,15)           108.2698         estimate D2E/DX2                !
 ! A71   A(12,14,18)           113.3199         estimate D2E/DX2                !
 ! A72   A(15,14,18)           115.6609         estimate D2E/DX2                !
 ! A73   A(14,15,16)           103.3157         estimate D2E/DX2                !
 ! A74   A(14,15,41)           111.0172         estimate D2E/DX2                !
 ! A75   A(14,15,42)           111.5967         estimate D2E/DX2                !
 ! A76   A(16,15,41)           112.8906         estimate D2E/DX2                !
 ! A77   A(16,15,42)           110.315          estimate D2E/DX2                !
 ! A78   A(41,15,42)           107.7406         estimate D2E/DX2                !
 ! A79   A(15,16,17)           102.4594         estimate D2E/DX2                !
 ! A80   A(15,16,43)           109.8305         estimate D2E/DX2                !
 ! A81   A(15,16,44)           112.8775         estimate D2E/DX2                !
 ! A82   A(17,16,43)           110.8026         estimate D2E/DX2                !
 ! A83   A(17,16,44)           112.9015         estimate D2E/DX2                !
 ! A84   A(43,16,44)           107.9251         estimate D2E/DX2                !
 ! A85   A(12,17,16)           104.1546         estimate D2E/DX2                !
 ! A86   A(12,17,45)           112.3576         estimate D2E/DX2                !
 ! A87   A(12,17,46)           109.3811         estimate D2E/DX2                !
 ! A88   A(16,17,45)           113.5088         estimate D2E/DX2                !
 ! A89   A(16,17,46)           110.2538         estimate D2E/DX2                !
 ! A90   A(45,17,46)           107.166          estimate D2E/DX2                !
 ! A91   A(14,18,19)           114.3185         estimate D2E/DX2                !
 ! A92   A(14,18,47)           107.7711         estimate D2E/DX2                !
 ! A93   A(14,18,48)           110.3269         estimate D2E/DX2                !
 ! A94   A(19,18,47)           108.4478         estimate D2E/DX2                !
 ! A95   A(19,18,48)           108.9959         estimate D2E/DX2                !
 ! A96   A(47,18,48)           106.6836         estimate D2E/DX2                !
 ! A97   A(18,19,20)           115.5792         estimate D2E/DX2                !
 ! A98   A(18,19,23)           112.9804         estimate D2E/DX2                !
 ! A99   A(18,19,49)           109.183          estimate D2E/DX2                !
 ! A100  A(20,19,23)           102.4111         estimate D2E/DX2                !
 ! A101  A(20,19,49)           108.4645         estimate D2E/DX2                !
 ! A102  A(23,19,49)           107.7896         estimate D2E/DX2                !
 ! A103  A(19,20,21)           104.4009         estimate D2E/DX2                !
 ! A104  A(19,20,50)           109.0875         estimate D2E/DX2                !
 ! A105  A(19,20,51)           113.2806         estimate D2E/DX2                !
 ! A106  A(21,20,50)           110.2014         estimate D2E/DX2                !
 ! A107  A(21,20,51)           112.5983         estimate D2E/DX2                !
 ! A108  A(50,20,51)           107.2486         estimate D2E/DX2                !
 ! A109  A(20,21,22)           105.8029         estimate D2E/DX2                !
 ! A110  A(20,21,52)           110.1217         estimate D2E/DX2                !
 ! A111  A(20,21,53)           111.8256         estimate D2E/DX2                !
 ! A112  A(22,21,52)           110.195          estimate D2E/DX2                !
 ! A113  A(22,21,53)           112.2874         estimate D2E/DX2                !
 ! A114  A(52,21,53)           106.6535         estimate D2E/DX2                !
 ! A115  A(21,22,23)           105.7854         estimate D2E/DX2                !
 ! A116  A(21,22,54)           110.4089         estimate D2E/DX2                !
 ! A117  A(21,22,55)           112.0579         estimate D2E/DX2                !
 ! A118  A(23,22,54)           110.4795         estimate D2E/DX2                !
 ! A119  A(23,22,55)           111.5053         estimate D2E/DX2                !
 ! A120  A(54,22,55)           106.6661         estimate D2E/DX2                !
 ! A121  A(19,23,22)           104.7766         estimate D2E/DX2                !
 ! A122  A(19,23,56)           109.2275         estimate D2E/DX2                !
 ! A123  A(19,23,57)           112.9261         estimate D2E/DX2                !
 ! A124  A(22,23,56)           110.1881         estimate D2E/DX2                !
 ! A125  A(22,23,57)           112.6609         estimate D2E/DX2                !
 ! A126  A(56,23,57)           107.0544         estimate D2E/DX2                !
 ! A127  A(10,24,11)           122.6265         estimate D2E/DX2                !
 ! A128  A(10,24,58)           121.3103         estimate D2E/DX2                !
 ! A129  A(11,24,58)           115.9503         estimate D2E/DX2                !
 ! D1    D(3,1,2,4)            -59.8377         estimate D2E/DX2                !
 ! D2    D(3,1,2,9)             59.6686         estimate D2E/DX2                !
 ! D3    D(3,1,2,27)          -179.892          estimate D2E/DX2                !
 ! D4    D(25,1,2,4)           178.9839         estimate D2E/DX2                !
 ! D5    D(25,1,2,9)           -61.5098         estimate D2E/DX2                !
 ! D6    D(25,1,2,27)           58.9296         estimate D2E/DX2                !
 ! D7    D(26,1,2,4)            61.5151         estimate D2E/DX2                !
 ! D8    D(26,1,2,9)          -178.9785         estimate D2E/DX2                !
 ! D9    D(26,1,2,27)          -58.5392         estimate D2E/DX2                !
 ! D10   D(2,1,3,5)             59.6757         estimate D2E/DX2                !
 ! D11   D(2,1,3,7)            -59.9263         estimate D2E/DX2                !
 ! D12   D(2,1,3,28)           179.7799         estimate D2E/DX2                !
 ! D13   D(25,1,3,5)          -179.1564         estimate D2E/DX2                !
 ! D14   D(25,1,3,7)            61.2416         estimate D2E/DX2                !
 ! D15   D(25,1,3,28)          -59.0522         estimate D2E/DX2                !
 ! D16   D(26,1,3,5)           -61.6747         estimate D2E/DX2                !
 ! D17   D(26,1,3,7)           178.7233         estimate D2E/DX2                !
 ! D18   D(26,1,3,28)           58.4295         estimate D2E/DX2                !
 ! D19   D(1,2,4,6)             60.2531         estimate D2E/DX2                !
 ! D20   D(1,2,4,29)          -177.0205         estimate D2E/DX2                !
 ! D21   D(1,2,4,30)           -60.3187         estimate D2E/DX2                !
 ! D22   D(9,2,4,6)            -59.6017         estimate D2E/DX2                !
 ! D23   D(9,2,4,29)            63.1248         estimate D2E/DX2                !
 ! D24   D(9,2,4,30)           179.8265         estimate D2E/DX2                !
 ! D25   D(27,2,4,6)          -179.5866         estimate D2E/DX2                !
 ! D26   D(27,2,4,29)          -56.8601         estimate D2E/DX2                !
 ! D27   D(27,2,4,30)           59.8417         estimate D2E/DX2                !
 ! D28   D(1,2,9,8)            -59.4347         estimate D2E/DX2                !
 ! D29   D(1,2,9,37)            61.3603         estimate D2E/DX2                !
 ! D30   D(1,2,9,38)           178.7216         estimate D2E/DX2                !
 ! D31   D(4,2,9,8)             60.2842         estimate D2E/DX2                !
 ! D32   D(4,2,9,37)          -178.9207         estimate D2E/DX2                !
 ! D33   D(4,2,9,38)           -61.5595         estimate D2E/DX2                !
 ! D34   D(27,2,9,8)          -179.8561         estimate D2E/DX2                !
 ! D35   D(27,2,9,37)          -59.0611         estimate D2E/DX2                !
 ! D36   D(27,2,9,38)           58.3002         estimate D2E/DX2                !
 ! D37   D(1,3,5,6)            -60.0469         estimate D2E/DX2                !
 ! D38   D(1,3,5,31)           178.5058         estimate D2E/DX2                !
 ! D39   D(1,3,5,32)            60.8492         estimate D2E/DX2                !
 ! D40   D(7,3,5,6)             59.6095         estimate D2E/DX2                !
 ! D41   D(7,3,5,31)           -61.8378         estimate D2E/DX2                !
 ! D42   D(7,3,5,32)          -179.4944         estimate D2E/DX2                !
 ! D43   D(28,3,5,6)           179.7194         estimate D2E/DX2                !
 ! D44   D(28,3,5,31)           58.2721         estimate D2E/DX2                !
 ! D45   D(28,3,5,32)          -59.3845         estimate D2E/DX2                !
 ! D46   D(1,3,7,8)             60.0123         estimate D2E/DX2                !
 ! D47   D(1,3,7,34)           -60.9975         estimate D2E/DX2                !
 ! D48   D(1,3,7,35)          -178.6035         estimate D2E/DX2                !
 ! D49   D(5,3,7,8)            -59.6434         estimate D2E/DX2                !
 ! D50   D(5,3,7,34)           179.3467         estimate D2E/DX2                !
 ! D51   D(5,3,7,35)            61.7408         estimate D2E/DX2                !
 ! D52   D(28,3,7,8)          -179.6588         estimate D2E/DX2                !
 ! D53   D(28,3,7,34)           59.3314         estimate D2E/DX2                !
 ! D54   D(28,3,7,35)          -58.2746         estimate D2E/DX2                !
 ! D55   D(2,4,6,5)            -60.1215         estimate D2E/DX2                !
 ! D56   D(2,4,6,10)            58.9588         estimate D2E/DX2                !
 ! D57   D(2,4,6,33)           179.8093         estimate D2E/DX2                !
 ! D58   D(29,4,6,5)           177.9629         estimate D2E/DX2                !
 ! D59   D(29,4,6,10)          -62.9568         estimate D2E/DX2                !
 ! D60   D(29,4,6,33)           57.8937         estimate D2E/DX2                !
 ! D61   D(30,4,6,5)            61.0131         estimate D2E/DX2                !
 ! D62   D(30,4,6,10)         -179.9066         estimate D2E/DX2                !
 ! D63   D(30,4,6,33)          -59.0561         estimate D2E/DX2                !
 ! D64   D(3,5,6,4)             60.0637         estimate D2E/DX2                !
 ! D65   D(3,5,6,10)           -60.7566         estimate D2E/DX2                !
 ! D66   D(3,5,6,33)          -179.5959         estimate D2E/DX2                !
 ! D67   D(31,5,6,4)          -178.4024         estimate D2E/DX2                !
 ! D68   D(31,5,6,10)           60.7773         estimate D2E/DX2                !
 ! D69   D(31,5,6,33)          -58.062          estimate D2E/DX2                !
 ! D70   D(32,5,6,4)           -61.1185         estimate D2E/DX2                !
 ! D71   D(32,5,6,10)          178.0612         estimate D2E/DX2                !
 ! D72   D(32,5,6,33)           59.2219         estimate D2E/DX2                !
 ! D73   D(4,6,10,8)           -57.2703         estimate D2E/DX2                !
 ! D74   D(4,6,10,24)           68.1335         estimate D2E/DX2                !
 ! D75   D(4,6,10,39)         -175.1305         estimate D2E/DX2                !
 ! D76   D(5,6,10,8)            62.1272         estimate D2E/DX2                !
 ! D77   D(5,6,10,24)         -172.469          estimate D2E/DX2                !
 ! D78   D(5,6,10,39)          -55.7329         estimate D2E/DX2                !
 ! D79   D(33,6,10,8)         -178.6938         estimate D2E/DX2                !
 ! D80   D(33,6,10,24)         -53.29           estimate D2E/DX2                !
 ! D81   D(33,6,10,39)          63.446          estimate D2E/DX2                !
 ! D82   D(3,7,8,9)            -59.6795         estimate D2E/DX2                !
 ! D83   D(3,7,8,10)            60.8557         estimate D2E/DX2                !
 ! D84   D(3,7,8,36)           179.2729         estimate D2E/DX2                !
 ! D85   D(34,7,8,9)            61.4896         estimate D2E/DX2                !
 ! D86   D(34,7,8,10)         -177.9752         estimate D2E/DX2                !
 ! D87   D(34,7,8,36)          -59.558          estimate D2E/DX2                !
 ! D88   D(35,7,8,9)           178.797          estimate D2E/DX2                !
 ! D89   D(35,7,8,10)          -60.6677         estimate D2E/DX2                !
 ! D90   D(35,7,8,36)           57.7495         estimate D2E/DX2                !
 ! D91   D(7,8,9,2)             59.3453         estimate D2E/DX2                !
 ! D92   D(7,8,9,37)           -61.7204         estimate D2E/DX2                !
 ! D93   D(7,8,9,38)          -178.9279         estimate D2E/DX2                !
 ! D94   D(10,8,9,2)           -59.8233         estimate D2E/DX2                !
 ! D95   D(10,8,9,37)          179.111          estimate D2E/DX2                !
 ! D96   D(10,8,9,38)           61.9035         estimate D2E/DX2                !
 ! D97   D(36,8,9,2)          -179.8618         estimate D2E/DX2                !
 ! D98   D(36,8,9,37)           59.0725         estimate D2E/DX2                !
 ! D99   D(36,8,9,38)          -58.135          estimate D2E/DX2                !
 ! D100  D(7,8,10,6)           -62.2758         estimate D2E/DX2                !
 ! D101  D(7,8,10,24)          173.2391         estimate D2E/DX2                !
 ! D102  D(7,8,10,39)           56.135          estimate D2E/DX2                !
 ! D103  D(9,8,10,6)            57.5534         estimate D2E/DX2                !
 ! D104  D(9,8,10,24)          -66.9317         estimate D2E/DX2                !
 ! D105  D(9,8,10,39)          175.9642         estimate D2E/DX2                !
 ! D106  D(36,8,10,6)          178.5533         estimate D2E/DX2                !
 ! D107  D(36,8,10,24)          54.0682         estimate D2E/DX2                !
 ! D108  D(36,8,10,39)         -63.0358         estimate D2E/DX2                !
 ! D109  D(6,10,24,11)         151.9886         estimate D2E/DX2                !
 ! D110  D(6,10,24,58)         -23.9909         estimate D2E/DX2                !
 ! D111  D(8,10,24,11)         -84.7541         estimate D2E/DX2                !
 ! D112  D(8,10,24,58)          99.2665         estimate D2E/DX2                !
 ! D113  D(39,10,24,11)         33.5176         estimate D2E/DX2                !
 ! D114  D(39,10,24,58)       -142.4618         estimate D2E/DX2                !
 ! D115  D(13,11,12,14)       -163.3779         estimate D2E/DX2                !
 ! D116  D(13,11,12,17)         77.2882         estimate D2E/DX2                !
 ! D117  D(13,11,12,40)        -41.0421         estimate D2E/DX2                !
 ! D118  D(24,11,12,14)         18.5939         estimate D2E/DX2                !
 ! D119  D(24,11,12,17)       -100.7401         estimate D2E/DX2                !
 ! D120  D(24,11,12,40)        140.9297         estimate D2E/DX2                !
 ! D121  D(12,11,24,10)        179.4153         estimate D2E/DX2                !
 ! D122  D(12,11,24,58)         -4.4046         estimate D2E/DX2                !
 ! D123  D(13,11,24,10)          1.4813         estimate D2E/DX2                !
 ! D124  D(13,11,24,58)        177.6614         estimate D2E/DX2                !
 ! D125  D(11,12,14,15)       -138.5767         estimate D2E/DX2                !
 ! D126  D(11,12,14,18)         91.7125         estimate D2E/DX2                !
 ! D127  D(17,12,14,15)        -16.3479         estimate D2E/DX2                !
 ! D128  D(17,12,14,18)       -146.0587         estimate D2E/DX2                !
 ! D129  D(40,12,14,15)        102.8009         estimate D2E/DX2                !
 ! D130  D(40,12,14,18)        -26.9099         estimate D2E/DX2                !
 ! D131  D(11,12,17,16)        114.9425         estimate D2E/DX2                !
 ! D132  D(11,12,17,45)         -8.3249         estimate D2E/DX2                !
 ! D133  D(11,12,17,46)       -127.2058         estimate D2E/DX2                !
 ! D134  D(14,12,17,16)         -9.1705         estimate D2E/DX2                !
 ! D135  D(14,12,17,45)       -132.4379         estimate D2E/DX2                !
 ! D136  D(14,12,17,46)        108.6812         estimate D2E/DX2                !
 ! D137  D(40,12,17,16)       -129.5963         estimate D2E/DX2                !
 ! D138  D(40,12,17,45)        107.1364         estimate D2E/DX2                !
 ! D139  D(40,12,17,46)        -11.7445         estimate D2E/DX2                !
 ! D140  D(12,14,15,16)         35.5574         estimate D2E/DX2                !
 ! D141  D(12,14,15,41)        156.832          estimate D2E/DX2                !
 ! D142  D(12,14,15,42)        -82.9585         estimate D2E/DX2                !
 ! D143  D(18,14,15,16)        163.9537         estimate D2E/DX2                !
 ! D144  D(18,14,15,41)        -74.7716         estimate D2E/DX2                !
 ! D145  D(18,14,15,42)         45.4379         estimate D2E/DX2                !
 ! D146  D(12,14,18,19)       -171.2447         estimate D2E/DX2                !
 ! D147  D(12,14,18,47)        -50.6147         estimate D2E/DX2                !
 ! D148  D(12,14,18,48)         65.5033         estimate D2E/DX2                !
 ! D149  D(15,14,18,19)         62.8933         estimate D2E/DX2                !
 ! D150  D(15,14,18,47)       -176.4767         estimate D2E/DX2                !
 ! D151  D(15,14,18,48)        -60.3586         estimate D2E/DX2                !
 ! D152  D(14,15,16,17)        -39.965          estimate D2E/DX2                !
 ! D153  D(14,15,16,43)         77.831          estimate D2E/DX2                !
 ! D154  D(14,15,16,44)       -161.6865         estimate D2E/DX2                !
 ! D155  D(41,15,16,17)       -159.9645         estimate D2E/DX2                !
 ! D156  D(41,15,16,43)        -42.1685         estimate D2E/DX2                !
 ! D157  D(41,15,16,44)         78.314          estimate D2E/DX2                !
 ! D158  D(42,15,16,17)         79.438          estimate D2E/DX2                !
 ! D159  D(42,15,16,43)       -162.7661         estimate D2E/DX2                !
 ! D160  D(42,15,16,44)        -42.2835         estimate D2E/DX2                !
 ! D161  D(15,16,17,12)         29.7255         estimate D2E/DX2                !
 ! D162  D(15,16,17,45)        152.2397         estimate D2E/DX2                !
 ! D163  D(15,16,17,46)        -87.5233         estimate D2E/DX2                !
 ! D164  D(43,16,17,12)        -87.3775         estimate D2E/DX2                !
 ! D165  D(43,16,17,45)         35.1367         estimate D2E/DX2                !
 ! D166  D(43,16,17,46)        155.3737         estimate D2E/DX2                !
 ! D167  D(44,16,17,12)        151.4307         estimate D2E/DX2                !
 ! D168  D(44,16,17,45)        -86.0552         estimate D2E/DX2                !
 ! D169  D(44,16,17,46)         34.1819         estimate D2E/DX2                !
 ! D170  D(14,18,19,20)         60.7828         estimate D2E/DX2                !
 ! D171  D(14,18,19,23)        178.2868         estimate D2E/DX2                !
 ! D172  D(14,18,19,49)        -61.7856         estimate D2E/DX2                !
 ! D173  D(47,18,19,20)        -59.4705         estimate D2E/DX2                !
 ! D174  D(47,18,19,23)         58.0335         estimate D2E/DX2                !
 ! D175  D(47,18,19,49)        177.961          estimate D2E/DX2                !
 ! D176  D(48,18,19,20)       -175.2497         estimate D2E/DX2                !
 ! D177  D(48,18,19,23)        -57.7457         estimate D2E/DX2                !
 ! D178  D(48,18,19,49)         62.1819         estimate D2E/DX2                !
 ! D179  D(18,19,20,21)        163.1895         estimate D2E/DX2                !
 ! D180  D(18,19,20,50)         45.4069         estimate D2E/DX2                !
 ! D181  D(18,19,20,51)        -73.9646         estimate D2E/DX2                !
 ! D182  D(23,19,20,21)         39.9228         estimate D2E/DX2                !
 ! D183  D(23,19,20,50)        -77.8598         estimate D2E/DX2                !
 ! D184  D(23,19,20,51)        162.7687         estimate D2E/DX2                !
 ! D185  D(49,19,20,21)        -73.8614         estimate D2E/DX2                !
 ! D186  D(49,19,20,50)        168.356          estimate D2E/DX2                !
 ! D187  D(49,19,20,51)         48.9845         estimate D2E/DX2                !
 ! D188  D(18,19,23,22)       -163.7963         estimate D2E/DX2                !
 ! D189  D(18,19,23,56)        -45.7627         estimate D2E/DX2                !
 ! D190  D(18,19,23,57)         73.2342         estimate D2E/DX2                !
 ! D191  D(20,19,23,22)        -38.8            estimate D2E/DX2                !
 ! D192  D(20,19,23,56)         79.2336         estimate D2E/DX2                !
 ! D193  D(20,19,23,57)       -161.7695         estimate D2E/DX2                !
 ! D194  D(49,19,23,22)         75.4797         estimate D2E/DX2                !
 ! D195  D(49,19,23,56)       -166.4866         estimate D2E/DX2                !
 ! D196  D(49,19,23,57)        -47.4898         estimate D2E/DX2                !
 ! D197  D(19,20,21,22)        -25.9275         estimate D2E/DX2                !
 ! D198  D(19,20,21,52)         93.1369         estimate D2E/DX2                !
 ! D199  D(19,20,21,53)       -148.4705         estimate D2E/DX2                !
 ! D200  D(50,20,21,22)         91.088          estimate D2E/DX2                !
 ! D201  D(50,20,21,52)       -149.8476         estimate D2E/DX2                !
 ! D202  D(50,20,21,53)        -31.455          estimate D2E/DX2                !
 ! D203  D(51,20,21,22)       -149.2169         estimate D2E/DX2                !
 ! D204  D(51,20,21,52)        -30.1525         estimate D2E/DX2                !
 ! D205  D(51,20,21,53)         88.2401         estimate D2E/DX2                !
 ! D206  D(20,21,22,23)          1.8611         estimate D2E/DX2                !
 ! D207  D(20,21,22,54)        121.4068         estimate D2E/DX2                !
 ! D208  D(20,21,22,55)       -119.8468         estimate D2E/DX2                !
 ! D209  D(52,21,22,23)       -117.1549         estimate D2E/DX2                !
 ! D210  D(52,21,22,54)          2.3909         estimate D2E/DX2                !
 ! D211  D(52,21,22,55)        121.1372         estimate D2E/DX2                !
 ! D212  D(53,21,22,23)        124.1092         estimate D2E/DX2                !
 ! D213  D(53,21,22,54)       -116.3451         estimate D2E/DX2                !
 ! D214  D(53,21,22,55)          2.4013         estimate D2E/DX2                !
 ! D215  D(21,22,23,19)         22.8555         estimate D2E/DX2                !
 ! D216  D(21,22,23,56)        -94.5229         estimate D2E/DX2                !
 ! D217  D(21,22,23,57)        145.9962         estimate D2E/DX2                !
 ! D218  D(54,22,23,19)        -96.6438         estimate D2E/DX2                !
 ! D219  D(54,22,23,56)        145.9778         estimate D2E/DX2                !
 ! D220  D(54,22,23,57)         26.4969         estimate D2E/DX2                !
 ! D221  D(55,22,23,19)        144.9184         estimate D2E/DX2                !
 ! D222  D(55,22,23,56)         27.5399         estimate D2E/DX2                !
 ! D223  D(55,22,23,57)        -91.9409         estimate D2E/DX2                !
 --------------------------------------------------------------------------------
 Trust Radius=3.00D-01 FncErr=1.00D-07 GrdErr=1.00D-07
 Number of steps in this run=    348 maximum allowed number of steps=    348.
 GradGradGradGradGradGradGradGradGradGradGradGradGradGradGradGradGradGrad

 Stoichiometry    C21H34N2O
 Framework group  C1[X(C21H34N2O)]
 Deg. of freedom   168
 Full point group                 C1      NOp   1
 Largest Abelian subgroup         C1      NOp   1
 Largest concise Abelian subgroup C1      NOp   1
                         Standard orientation:                         
 ---------------------------------------------------------------------
 Center     Atomic      Atomic             Coordinates (Angstroms)
 Number     Number       Type             X           Y           Z
 ---------------------------------------------------------------------
      1          6           0       -4.345419   -1.506276    1.024086
      2          6           0       -3.023932   -0.986273    1.609011
      3          6           0       -4.408239   -1.184561   -0.476447
      4          6           0       -1.846389   -1.661490    0.888472
      5          6           0       -3.224858   -1.856634   -1.191507
      6          6           0       -1.898195   -1.332121   -0.614320
      7          6           0       -4.322793    0.337745   -0.675186
      8          6           0       -2.998997    0.863678   -0.095211
      9          6           0       -2.932006    0.534111    1.403922
     10          6           0       -1.836740    0.187109   -0.850152
     11          6           0       -0.022628    1.824917   -1.066219
     12          6           0        1.348747    2.279124   -0.572995
     13          8           0       -0.597728    2.473906   -1.909474
     14          7           0        2.098370    1.242353    0.137045
     15          6           0        2.742293    1.854399    1.292493
     16          6           0        1.728838    2.893489    1.748922
     17          6           0        1.217705    3.461881    0.421628
     18          6           0        2.968956    0.464856   -0.730798
     19          6           0        3.599936   -0.752129   -0.060666
     20          6           0        2.615919   -1.801623    0.466108
     21          6           0        3.475901   -3.060750    0.677469
     22          6           0        4.669197   -2.927612   -0.306136
     23          6           0        4.478912   -1.573457   -1.014871
     24          7           0       -0.534936    0.727611   -0.489627
     25          1           0       -5.187181   -1.047894    1.539495
     26          1           0       -4.427643   -2.580368    1.180855
     27          1           0       -2.978736   -1.216098    2.672252
     28          1           0       -5.342146   -1.555925   -0.892444
     29          1           0       -0.906046   -1.338927    1.331635
     30          1           0       -1.889849   -2.741009    1.023288
     31          1           0       -3.270625   -1.659367   -2.260278
     32          1           0       -3.276527   -2.936210   -1.067255
     33          1           0       -1.065027   -1.804928   -1.127989
     34          1           0       -5.161235    0.826612   -0.183727
     35          1           0       -4.390768    0.584388   -1.732743
     36          1           0       -2.932072    1.936311   -0.246520
     37          1           0       -3.749346    1.031533    1.924562
     38          1           0       -2.010086    0.915710    1.834670
     39          1           0       -1.962028    0.384970   -1.908437
     40          1           0        1.872497    2.609839   -1.466374
     41          1           0        2.959358    1.114093    2.054109
     42          1           0        3.686017    2.338247    1.018792
     43          1           0        0.925153    2.408912    2.296133
     44          1           0        2.162392    3.650811    2.393455
     45          1           0        0.206143    3.843784    0.476367
     46          1           0        1.850530    4.278375    0.094734
     47          1           0        2.376641    0.123817   -1.575133
     48          1           0        3.763541    1.098875   -1.139611
     49          1           0        4.226323   -0.420630    0.766521
     50          1           0        1.855113   -1.988396   -0.291018
     51          1           0        2.101642   -1.491834    1.369160
     52          1           0        3.836705   -3.099488    1.702088
     53          1           0        2.906962   -3.970047    0.513544
     54          1           0        5.609433   -2.943948    0.235235
     55          1           0        4.704951   -3.746876   -1.016664
     56          1           0        3.951608   -1.713353   -1.957210
     57          1           0        5.421090   -1.086596   -1.246494
     58          1           0        0.053743    0.264325    0.163247
 ---------------------------------------------------------------------
 Rotational constants (GHZ):      0.3379481      0.1566075      0.1257922
 Standard basis: 6-31G(d) (6D, 7F)
 There are   428 symmetry adapted basis functions of A   symmetry.
 Integral buffers will be    131072 words long.
 Raffenetti 1 integral format.
 Two-electron integral symmetry is turned on.
   428 basis functions,   808 primitive gaussians,   428 cartesian basis functions
    91 alpha electrons       91 beta electrons
       nuclear repulsion energy      2278.3241662474 Hartrees.
 NAtoms=   58 NActive=   58 NUniq=   58 SFac= 1.00D+00 NAtFMM=   60 NAOKFM=F Big=F
 One-electron integrals computed using PRISM.
 NBasis=   428 RedAO= T  NBF=   428
 NBsUse=   428 1.00D-06 NBFU=   428
 Harris functional with IExCor=  205 diagonalized for initial guess.
 ExpMin= 1.61D-01 ExpMax= 5.48D+03 ExpMxC= 8.25D+02 IAcc=1 IRadAn=         1 AccDes= 0.00D+00
 HarFok:  IExCor=  205 AccDes= 0.00D+00 IRadAn=         1 IDoV= 1
 ScaDFX=  1.000000  1.000000  1.000000  1.000000
 FoFCou: FMM=F IPFlag=           0 FMFlag=      100000 FMFlg1=           0
         NFxFlg=           0 DoJE=T BraDBF=F KetDBF=T FulRan=T
         Omega=  0.000000  0.000000  1.000000  0.000000  0.000000 ICntrl=     500 IOpCl=  0
         NMat0=    1 NMatS0=    1 NMatT0=    0 NMatD0=    1 NMtDS0=    0 NMtDT0=    0
         I1Cent=           4 NGrid=           0.
 Petite list used in FoFCou.
 Initial guess orbital symmetries:
       Occupied  (A) (A) (A) (A) (A) (A) (A) (A) (A) (A) (A) (A)
                 (A) (A) (A) (A) (A) (A) (A) (A) (A) (A) (A) (A)
                 (A) (A) (A) (A) (A) (A) (A) (A) (A) (A) (A) (A)
                 (A) (A) (A) (A) (A) (A) (A) (A) (A) (A) (A) (A)
                 (A) (A) (A) (A) (A) (A) (A) (A) (A) (A) (A) (A)
                 (A) (A) (A) (A) (A) (A) (A) (A) (A) (A) (A) (A)
                 (A) (A) (A) (A) (A) (A) (A) (A) (A) (A) (A) (A)
                 (A) (A) (A) (A) (A) (A) (A)
       Virtual   (A) (A) (A) (A) (A) (A) (A) (A) (A) (A) (A) (A)
                 (A) (A) (A) (A) (A) (A) (A) (A) (A) (A) (A) (A)
                 (A) (A) (A) (A) (A) (A) (A) (A) (A) (A) (A) (A)
                 (A) (A) (A) (A) (A) (A) (A) (A) (A) (A) (A) (A)
                 (A) (A) (A) (A) (A) (A) (A) (A) (A) (A) (A) (A)
                 (A) (A) (A) (A) (A) (A) (A) (A) (A) (A) (A) (A)
                 (A) (A) (A) (A) (A) (A) (A) (A) (A) (A) (A) (A)
                 (A) (A) (A) (A) (A) (A) (A) (A) (A) (A) (A) (A)
                 (A) (A) (A) (A) (A) (A) (A) (A) (A) (A) (A) (A)
                 (A) (A) (A) (A) (A) (A) (A) (A) (A) (A) (A) (A)
                 (A) (A) (A) (A) (A) (A) (A) (A) (A) (A) (A) (A)
                 (A) (A) (A) (A) (A) (A) (A) (A) (A) (A) (A) (A)
                 (A) (A) (A) (A) (A) (A) (A) (A) (A) (A) (A) (A)
                 (A) (A) (A) (A) (A) (A) (A) (A) (A) (A) (A) (A)
                 (A) (A) (A) (A) (A) (A) (A) (A) (A) (A) (A) (A)
                 (A) (A) (A) (A) (A) (A) (A) (A) (A) (A) (A) (A)
                 (A) (A) (A) (A) (A) (A) (A) (A) (A) (A) (A) (A)
                 (A) (A) (A) (A) (A) (A) (A) (A) (A) (A) (A) (A)
                 (A) (A) (A) (A) (A) (A) (A) (A) (A) (A) (A) (A)
                 (A) (A) (A) (A) (A) (A) (A) (A) (A) (A) (A) (A)
                 (A) (A) (A) (A) (A) (A) (A) (A) (A) (A) (A) (A)
                 (A) (A) (A) (A) (A) (A) (A) (A) (A) (A) (A) (A)
                 (A) (A) (A) (A) (A) (A) (A) (A) (A) (A) (A) (A)
                 (A) (A) (A) (A) (A) (A) (A) (A) (A) (A) (A) (A)
                 (A) (A) (A) (A) (A) (A) (A) (A) (A) (A) (A) (A)
                 (A) (A) (A) (A) (A) (A) (A) (A) (A) (A) (A) (A)
                 (A) (A) (A) (A) (A) (A) (A) (A) (A) (A) (A) (A)
                 (A) (A) (A) (A) (A) (A) (A) (A) (A) (A) (A) (A)
                 (A)
 The electronic state of the initial guess is 1-A.
 Requested convergence on RMS density matrix=1.00D-08 within 128 cycles.
 Requested convergence on MAX density matrix=1.00D-06.
 Requested convergence on             energy=1.00D-06.
 No special actions if energy rises.
 Integral accuracy reduced to 1.0D-05 until final iterations.
 Initial convergence to 1.0D-05 achieved.  Increase integral accuracy.
 SCF Done:  E(RHF) =  -998.838173514     A.U. after   14 cycles
             Convg  =    0.6635D-08             -V/T =  2.0007

 **********************************************************************

            Population analysis using the SCF density.

 **********************************************************************

 Orbital symmetries:
       Occupied  (A) (A) (A) (A) (A) (A) (A) (A) (A) (A) (A) (A)
                 (A) (A) (A) (A) (A) (A) (A) (A) (A) (A) (A) (A)
                 (A) (A) (A) (A) (A) (A) (A) (A) (A) (A) (A) (A)
                 (A) (A) (A) (A) (A) (A) (A) (A) (A) (A) (A) (A)
                 (A) (A) (A) (A) (A) (A) (A) (A) (A) (A) (A) (A)
                 (A) (A) (A) (A) (A) (A) (A) (A) (A) (A) (A) (A)
                 (A) (A) (A) (A) (A) (A) (A) (A) (A) (A) (A) (A)
                 (A) (A) (A) (A) (A) (A) (A)
       Virtual   (A) (A) (A) (A) (A) (A) (A) (A) (A) (A) (A) (A)
                 (A) (A) (A) (A) (A) (A) (A) (A) (A) (A) (A) (A)
                 (A) (A) (A) (A) (A) (A) (A) (A) (A) (A) (A) (A)
                 (A) (A) (A) (A) (A) (A) (A) (A) (A) (A) (A) (A)
                 (A) (A) (A) (A) (A) (A) (A) (A) (A) (A) (A) (A)
                 (A) (A) (A) (A) (A) (A) (A) (A) (A) (A) (A) (A)
                 (A) (A) (A) (A) (A) (A) (A) (A) (A) (A) (A) (A)
                 (A) (A) (A) (A) (A) (A) (A) (A) (A) (A) (A) (A)
                 (A) (A) (A) (A) (A) (A) (A) (A) (A) (A) (A) (A)
                 (A) (A) (A) (A) (A) (A) (A) (A) (A) (A) (A) (A)
                 (A) (A) (A) (A) (A) (A) (A) (A) (A) (A) (A) (A)
                 (A) (A) (A) (A) (A) (A) (A) (A) (A) (A) (A) (A)
                 (A) (A) (A) (A) (A) (A) (A) (A) (A) (A) (A) (A)
                 (A) (A) (A) (A) (A) (A) (A) (A) (A) (A) (A) (A)
                 (A) (A) (A) (A) (A) (A) (A) (A) (A) (A) (A) (A)
                 (A) (A) (A) (A) (A) (A) (A) (A) (A) (A) (A) (A)
                 (A) (A) (A) (A) (A) (A) (A) (A) (A) (A) (A) (A)
                 (A) (A) (A) (A) (A) (A) (A) (A) (A) (A) (A) (A)
                 (A) (A) (A) (A) (A) (A) (A) (A) (A) (A) (A) (A)
                 (A) (A) (A) (A) (A) (A) (A) (A) (A) (A) (A) (A)
                 (A) (A) (A) (A) (A) (A) (A) (A) (A) (A) (A) (A)
                 (A) (A) (A) (A) (A) (A) (A) (A) (A) (A) (A) (A)
                 (A) (A) (A) (A) (A) (A) (A) (A) (A) (A) (A) (A)
                 (A) (A) (A) (A) (A) (A) (A) (A) (A) (A) (A) (A)
                 (A) (A) (A) (A) (A) (A) (A) (A) (A) (A) (A) (A)
                 (A) (A) (A) (A) (A) (A) (A) (A) (A) (A) (A) (A)
                 (A) (A) (A) (A) (A) (A) (A) (A) (A) (A) (A) (A)
                 (A) (A) (A) (A) (A) (A) (A) (A) (A) (A) (A) (A)
                 (A)
 The electronic state is 1-A.
 Alpha  occ. eigenvalues --  -20.50129 -15.56420 -15.55572 -11.32447 -11.25621
 Alpha  occ. eigenvalues --  -11.25087 -11.25002 -11.24946 -11.22581 -11.22449
 Alpha  occ. eigenvalues --  -11.22425 -11.22271 -11.21878 -11.21753 -11.21738
 Alpha  occ. eigenvalues --  -11.21698 -11.21649 -11.21597 -11.21579 -11.21289
 Alpha  occ. eigenvalues --  -11.21148 -11.21013 -11.20855 -11.20762  -1.36812
 Alpha  occ. eigenvalues --   -1.25422  -1.22184  -1.15488  -1.13015  -1.06492
 Alpha  occ. eigenvalues --   -1.03902  -1.03808  -1.03322  -0.99939  -0.98621
 Alpha  occ. eigenvalues --   -0.96560  -0.91248  -0.90773  -0.89076  -0.82990
 Alpha  occ. eigenvalues --   -0.81100  -0.80507  -0.79842  -0.79268  -0.77869
 Alpha  occ. eigenvalues --   -0.76523  -0.75511  -0.72104  -0.69187  -0.67873
 Alpha  occ. eigenvalues --   -0.65789  -0.64906  -0.63713  -0.62967  -0.62885
 Alpha  occ. eigenvalues --   -0.61696  -0.61422  -0.60688  -0.59500  -0.58420
 Alpha  occ. eigenvalues --   -0.57582  -0.57048  -0.56248  -0.55833  -0.55225
 Alpha  occ. eigenvalues --   -0.54745  -0.54476  -0.54201  -0.54049  -0.53540
 Alpha  occ. eigenvalues --   -0.50755  -0.49531  -0.48554  -0.48135  -0.48073
 Alpha  occ. eigenvalues --   -0.47473  -0.47250  -0.46629  -0.46348  -0.46063
 Alpha  occ. eigenvalues --   -0.45968  -0.45905  -0.45701  -0.45547  -0.44986
 Alpha  occ. eigenvalues --   -0.41301  -0.41073  -0.40410  -0.39902  -0.36233
 Alpha  occ. eigenvalues --   -0.35383
 Alpha virt. eigenvalues --    0.19039   0.20822   0.21682   0.22385   0.23389
 Alpha virt. eigenvalues --    0.23817   0.25256   0.26264   0.26948   0.27407
 Alpha virt. eigenvalues --    0.27710   0.27806   0.28284   0.29205   0.29493
 Alpha virt. eigenvalues --    0.30023   0.30490   0.30919   0.31155   0.31586
 Alpha virt. eigenvalues --    0.31814   0.32547   0.33400   0.33642   0.33969
 Alpha virt. eigenvalues --    0.34559   0.34703   0.35444   0.35725   0.36285
 Alpha virt. eigenvalues --    0.36535   0.36859   0.37243   0.37743   0.38234
 Alpha virt. eigenvalues --    0.38816   0.39361   0.39553   0.39814   0.40594
 Alpha virt. eigenvalues --    0.40966   0.41380   0.41931   0.42241   0.43236
 Alpha virt. eigenvalues --    0.43935   0.44873   0.45283   0.45347   0.45989
 Alpha virt. eigenvalues --    0.46694   0.46905   0.47244   0.47333   0.49444
 Alpha virt. eigenvalues --    0.49921   0.51154   0.51865   0.52945   0.53747
 Alpha virt. eigenvalues --    0.54854   0.57613   0.63809   0.70508   0.71030
 Alpha virt. eigenvalues --    0.72910   0.73127   0.73589   0.73823   0.74466
 Alpha virt. eigenvalues --    0.75023   0.75442   0.75854   0.76235   0.76867
 Alpha virt. eigenvalues --    0.77781   0.78420   0.79735   0.80909   0.82545
 Alpha virt. eigenvalues --    0.83359   0.85640   0.86511   0.87426   0.88897
 Alpha virt. eigenvalues --    0.89410   0.89804   0.90101   0.91435   0.92128
 Alpha virt. eigenvalues --    0.92460   0.93155   0.93422   0.93650   0.94007
 Alpha virt. eigenvalues --    0.94659   0.95206   0.95347   0.96809   0.98148
 Alpha virt. eigenvalues --    0.98907   0.99285   1.00611   1.01264   1.01529
 Alpha virt. eigenvalues --    1.02676   1.03997   1.04380   1.05399   1.05458
 Alpha virt. eigenvalues --    1.05932   1.06249   1.06981   1.08343   1.09345
 Alpha virt. eigenvalues --    1.09913   1.11081   1.11478   1.11896   1.12339
 Alpha virt. eigenvalues --    1.12606   1.13128   1.13572   1.14278   1.15020
 Alpha virt. eigenvalues --    1.15317   1.15407   1.15702   1.15779   1.16375
 Alpha virt. eigenvalues --    1.16533   1.16746   1.17257   1.17635   1.18262
 Alpha virt. eigenvalues --    1.19749   1.19949   1.20576   1.20737   1.21670
 Alpha virt. eigenvalues --    1.22158   1.22581   1.22945   1.23611   1.23730
 Alpha virt. eigenvalues --    1.24265   1.24806   1.25238   1.25564   1.26212
 Alpha virt. eigenvalues --    1.27429   1.27781   1.28650   1.30319   1.30870
 Alpha virt. eigenvalues --    1.31209   1.33304   1.34640   1.36939   1.37724
 Alpha virt. eigenvalues --    1.39050   1.40354   1.40905   1.42306   1.42454
 Alpha virt. eigenvalues --    1.43726   1.44619   1.47078   1.48174   1.48927
 Alpha virt. eigenvalues --    1.52293   1.53433   1.56276   1.57752   1.60496
 Alpha virt. eigenvalues --    1.63110   1.64797   1.66783   1.67671   1.67963
 Alpha virt. eigenvalues --    1.68488   1.70776   1.74173   1.75520   1.77460
 Alpha virt. eigenvalues --    1.79236   1.82636   1.83460   1.86349   1.88896
 Alpha virt. eigenvalues --    1.89871   1.92851   1.93533   1.95182   1.96306
 Alpha virt. eigenvalues --    1.97345   1.98313   1.98569   1.99911   2.00383
 Alpha virt. eigenvalues --    2.01509   2.03827   2.04773   2.06458   2.07491
 Alpha virt. eigenvalues --    2.07550   2.09222   2.09804   2.10996   2.11277
 Alpha virt. eigenvalues --    2.11822   2.12739   2.14195   2.15725   2.16307
 Alpha virt. eigenvalues --    2.17315   2.18879   2.19363   2.20312   2.20845
 Alpha virt. eigenvalues --    2.21286   2.22224   2.24037   2.24463   2.26279
 Alpha virt. eigenvalues --    2.26979   2.28302   2.29745   2.30691   2.30950
 Alpha virt. eigenvalues --    2.31418   2.33519   2.34499   2.35603   2.36978
 Alpha virt. eigenvalues --    2.38006   2.38616   2.38904   2.39973   2.40509
 Alpha virt. eigenvalues --    2.41086   2.42555   2.42999   2.43740   2.44506
 Alpha virt. eigenvalues --    2.45317   2.46993   2.48593   2.49888   2.50509
 Alpha virt. eigenvalues --    2.51528   2.51844   2.53712   2.54498   2.55541
 Alpha virt. eigenvalues --    2.55894   2.57471   2.61460   2.61995   2.62816
 Alpha virt. eigenvalues --    2.64361   2.65980   2.66586   2.68236   2.68736
 Alpha virt. eigenvalues --    2.68916   2.70244   2.72252   2.73143   2.73598
 Alpha virt. eigenvalues --    2.73985   2.74832   2.76306   2.76732   2.78437
 Alpha virt. eigenvalues --    2.79511   2.81613   2.82542   2.83331   2.85408
 Alpha virt. eigenvalues --    2.86956   2.88829   2.91371   2.93136   2.93384
 Alpha virt. eigenvalues --    2.95133   2.97232   2.99472   2.99836   3.00274
 Alpha virt. eigenvalues --    3.01085   3.02285   3.03135   3.04523   3.04691
 Alpha virt. eigenvalues --    3.05805   3.07836   3.08999   3.10013   3.10897
 Alpha virt. eigenvalues --    3.13118   3.15686   3.16216   3.19185   3.19537
 Alpha virt. eigenvalues --    3.21747   3.23239   3.25322   3.30562   3.32708
 Alpha virt. eigenvalues --    3.39720   3.47455   3.62311   4.51569   4.56503
 Alpha virt. eigenvalues --    4.59749   4.61551   4.63829   4.64718   4.70414
 Alpha virt. eigenvalues --    4.71838   4.73021   4.73675   4.75131   4.78827
 Alpha virt. eigenvalues --    4.85827   4.95367   4.95507   4.99572   5.03124
 Alpha virt. eigenvalues --    5.06361   5.07867   5.10217   5.19342   5.24941
 Alpha virt. eigenvalues --    5.27364   5.28744
          Condensed to atoms (all electrons):
 Mulliken atomic charges:
              1
     1  C   -0.308096
     2  C   -0.172672
     3  C   -0.175147
     4  C   -0.321829
     5  C   -0.315204
     6  C   -0.192968
     7  C   -0.321494
     8  C   -0.177029
     9  C   -0.316000
    10  C    0.082455
    11  C    0.757988
    12  C   -0.020001
    13  O   -0.645689
    14  N   -0.651092
    15  C   -0.103505
    16  C   -0.330932
    17  C   -0.358653
    18  C   -0.084676
    19  C   -0.183830
    20  C   -0.312619
    21  C   -0.329112
    22  C   -0.328273
    23  C   -0.319810
    24  N   -0.844270
    25  H    0.160431
    26  H    0.157979
    27  H    0.164198
    28  H    0.166571
    29  H    0.154784
    30  H    0.164755
    31  H    0.166893
    32  H    0.161731
    33  H    0.173150
    34  H    0.161993
    35  H    0.169720
    36  H    0.194347
    37  H    0.161570
    38  H    0.161280
    39  H    0.207317
    40  H    0.193333
    41  H    0.172424
    42  H    0.139758
    43  H    0.172676
    44  H    0.174431
    45  H    0.202051
    46  H    0.180265
    47  H    0.167382
    48  H    0.142748
    49  H    0.162301
    50  H    0.156395
    51  H    0.168085
    52  H    0.162799
    53  H    0.168134
    54  H    0.164901
    55  H    0.168483
    56  H    0.158170
    57  H    0.167868
    58  H    0.423533
 Sum of Mulliken atomic charges =   0.00000
 Mulliken charges with hydrogens summed into heavy atoms:
              1
     1  C    0.010314
     2  C   -0.008474
     3  C   -0.008576
     4  C   -0.002289
     5  C    0.013421
     6  C   -0.019818
     7  C    0.010220
     8  C    0.017317
     9  C    0.006850
    10  C    0.289773
    11  C    0.757988
    12  C    0.173333
    13  O   -0.645689
    14  N   -0.651092
    15  C    0.208677
    16  C    0.016175
    17  C    0.023664
    18  C    0.225455
    19  C   -0.021529
    20  C    0.011861
    21  C    0.001820
    22  C    0.005111
    23  C    0.006228
    24  N   -0.420737
 Sum of Mulliken charges with hydrogens summed into heavy atoms =   0.00000
 Electronic spatial extent (au):  <R**2>=           9250.5501
 Charge=              0.0000 electrons
 Dipole moment (field-independent basis, Debye):
    X=              2.0105    Y=             -2.0013    Z=              2.7214  Tot=              3.9311
 Quadrupole moment (field-independent basis, Debye-Ang):
   XX=           -141.8077   YY=           -153.2791   ZZ=           -154.4856
   XY=              6.4402   XZ=             -1.4342   YZ=              9.8862
 Traceless Quadrupole moment (field-independent basis, Debye-Ang):
   XX=              8.0497   YY=             -3.4216   ZZ=             -4.6281
   XY=              6.4402   XZ=             -1.4342   YZ=              9.8862
 Octapole moment (field-independent basis, Debye-Ang**2):
  XXX=             11.7646  YYY=              5.2477  ZZZ=              7.8745  XYY=             18.5812
  XXY=             12.7116  XXZ=             -0.0923  XZZ=              9.5781  YZZ=            -13.3124
  YYZ=             23.0810  XYZ=             -6.5415
 Hexadecapole moment (field-independent basis, Debye-Ang**3):
 XXXX=          -8194.3712 YYYY=          -3352.3993 ZZZZ=          -1187.7677 XXXY=             12.9829
 XXXZ=             28.4978 YYYX=             72.5411 YYYZ=             70.1049 ZZZX=             11.7064
 ZZZY=             29.7126 XXYY=          -1929.2421 XXZZ=          -1562.7889 YYZZ=           -805.2694
 XXYZ=              4.4120 YYXZ=            -18.9476 ZZXY=             17.9320
 N-N= 2.278324166247D+03 E-N=-6.886497946311D+03  KE= 9.981232034836D+02
 Calling FoFJK, ICntrl=      2127 FMM=F ISym2X=0 I1Cent= 0 IOpClX= 0 NMat=1 NMatS=1 NMatT=0.
 ***** Axes restored to original set *****
 -------------------------------------------------------------------
 Center     Atomic                   Forces (Hartrees/Bohr)
 Number     Number              X              Y              Z
 -------------------------------------------------------------------
      1        6          -0.000484698   -0.000409292    0.000541065
      2        6          -0.001382228    0.000804621   -0.000561842
      3        6           0.000927327   -0.000748638    0.000234783
      4        6          -0.000225824    0.000698188    0.000301457
      5        6          -0.000094730    0.000176872    0.000064656
      6        6           0.000315864   -0.000228189    0.000212724
      7        6          -0.000326083    0.000083526    0.000016210
      8        6           0.000671799   -0.000022181   -0.000144868
      9        6          -0.000456076   -0.001306851    0.000343507
     10        6           0.000798906   -0.000028116   -0.001348595
     11        6           0.004932270   -0.005279387    0.000300512
     12        6           0.000487295    0.000297833    0.000465609
     13        8          -0.004123212    0.003999113   -0.000373430
     14        7          -0.000143837    0.000513105   -0.000446257
     15        6           0.000349284    0.000847919   -0.000214633
     16        6          -0.000830245   -0.000824733   -0.000154676
     17        6          -0.000140106   -0.000161953    0.000488220
     18        6          -0.000099941   -0.000024319   -0.000358798
     19        6           0.000134866   -0.000231725   -0.000835206
     20        6           0.000241842   -0.000628375    0.000901670
     21        6          -0.001136621    0.000566935    0.000137379
     22        6           0.000145577    0.000347582    0.000858469
     23        6           0.000865188   -0.000308431   -0.000248353
     24        7          -0.000212199    0.000183715    0.000430450
     25        1           0.000160885    0.000275988   -0.000009135
     26        1           0.000078249   -0.000127018   -0.000346369
     27        1           0.001067490   -0.000248611    0.000153146
     28        1          -0.000148070    0.000343455   -0.000391626
     29        1           0.000160630   -0.000231493    0.000462543
     30        1           0.000139218   -0.000500554   -0.000698267
     31        1          -0.000376505    0.000068613   -0.000010285
     32        1           0.000155896   -0.000178247   -0.000124482
     33        1          -0.000035953    0.000071967   -0.000086171
     34        1           0.000233983    0.000169192    0.000129969
     35        1          -0.000498700    0.000117509    0.000016488
     36        1           0.000052701    0.000472844    0.000312178
     37        1           0.000455848    0.001008598   -0.000123712
     38        1           0.000039383   -0.000028249   -0.000095408
     39        1          -0.001022355    0.000418318   -0.000148916
     40        1          -0.000588235   -0.000220814   -0.000058288
     41        1           0.000709637   -0.000367585   -0.000243224
     42        1          -0.000510091   -0.000220842    0.000757422
     43        1           0.000640688    0.000216686   -0.000330501
     44        1           0.000203134    0.000125151    0.000697842
     45        1           0.000150265    0.000447602   -0.000110217
     46        1           0.000053541    0.000011705   -0.000234127
     47        1          -0.000271914   -0.000144696   -0.000190268
     48        1          -0.000127224   -0.000102010    0.000514896
     49        1           0.000084873   -0.000001665    0.000303299
     50        1          -0.000463452    0.000333223   -0.000634524
     51        1           0.000141941   -0.000028809   -0.000087833
     52        1           0.000919040   -0.000384688    0.000445537
     53        1          -0.000014226   -0.000011292   -0.000529455
     54        1           0.000016504   -0.000070155    0.000034273
     55        1          -0.000311339   -0.000126669   -0.000453728
     56        1          -0.000491847    0.000255830   -0.000260025
     57        1          -0.000053532   -0.000188868    0.000181195
     58        1          -0.000764882    0.000528367    0.000547720
 -------------------------------------------------------------------
 Cartesian Forces:  Max     0.005279387 RMS     0.000831000

 GradGradGradGradGradGradGradGradGradGradGradGradGradGradGradGradGradGrad
 Berny optimization.
 Internal  Forces:  Max     0.005734064 RMS     0.000375866
 Search for a local minimum.
 Step number   1 out of a maximum of  348
 All quantities printed in internal units (Hartrees-Bohrs-Radians)
 Mixed Optimization -- En-DIIS/RFO-DIIS
 Second derivative matrix not updated -- first step.
 ITU=  0
     Eigenvalues ---    0.00267   0.00415   0.00424   0.00430   0.00488
     Eigenvalues ---    0.00849   0.00958   0.00965   0.00969   0.00971
     Eigenvalues ---    0.00977   0.01099   0.01118   0.01153   0.01286
     Eigenvalues ---    0.01537   0.01978   0.02050   0.02054   0.02469
     Eigenvalues ---    0.02611   0.02693   0.02702   0.03386   0.03800
     Eigenvalues ---    0.03822   0.03908   0.03944   0.03951   0.04052
     Eigenvalues ---    0.04066   0.04154   0.04385   0.04547   0.04594
     Eigenvalues ---    0.04627   0.04632   0.04654   0.04667   0.04703
     Eigenvalues ---    0.04717   0.04726   0.04861   0.04870   0.04906
     Eigenvalues ---    0.05071   0.05140   0.05181   0.05185   0.05400
     Eigenvalues ---    0.05471   0.05518   0.05581   0.05630   0.05642
     Eigenvalues ---    0.05778   0.06035   0.06047   0.06129   0.06141
     Eigenvalues ---    0.06227   0.06264   0.06592   0.06787   0.06981
     Eigenvalues ---    0.06989   0.07039   0.07181   0.07191   0.07192
     Eigenvalues ---    0.07228   0.07384   0.07811   0.07812   0.07830
     Eigenvalues ---    0.07833   0.07844   0.08006   0.08267   0.08366
     Eigenvalues ---    0.08547   0.08676   0.08832   0.09101   0.09118
     Eigenvalues ---    0.09327   0.09447   0.09721   0.10476   0.11295
     Eigenvalues ---    0.11711   0.13066   0.13443   0.13621   0.14562
     Eigenvalues ---    0.15654   0.15977   0.16490   0.18396   0.19263
     Eigenvalues ---    0.20431   0.20693   0.21984   0.22005   0.24722
     Eigenvalues ---    0.24987   0.25000   0.25251   0.25345   0.25774
     Eigenvalues ---    0.25793   0.26151   0.26191   0.26299   0.26329
     Eigenvalues ---    0.26409   0.26726   0.27643   0.27920   0.28293
     Eigenvalues ---    0.28639   0.28673   0.28722   0.28737   0.28772
     Eigenvalues ---    0.28984   0.29748   0.29809   0.34167   0.34210
     Eigenvalues ---    0.34791   0.34874   0.34896   0.34898   0.34944
     Eigenvalues ---    0.34955   0.34959   0.34977   0.34994   0.35014
     Eigenvalues ---    0.35037   0.35053   0.35057   0.35070   0.35077
     Eigenvalues ---    0.35149   0.35161   0.35164   0.35187   0.35237
     Eigenvalues ---    0.35244   0.35334   0.35359   0.35388   0.35388
     Eigenvalues ---    0.35392   0.35413   0.35466   0.35506   0.35520
     Eigenvalues ---    0.35529   0.35574   0.35678   0.37607   0.37661
     Eigenvalues ---    0.48815   0.56922   1.00168
 RFO step:  Lambda=-2.07060652D-04 EMin= 2.67340785D-03
 Linear search not attempted -- first point.
 Iteration  1 RMS(Cart)=  0.02702329 RMS(Int)=  0.00009836
 Iteration  2 RMS(Cart)=  0.00022807 RMS(Int)=  0.00000416
 Iteration  3 RMS(Cart)=  0.00000002 RMS(Int)=  0.00000416
 Variable       Old X    -DE/DX   Delta X   Delta X   Delta X     New X
                                 (Linear)    (Quad)   (Total)
    R1        2.90236   0.00030   0.00000   0.00143   0.00143   2.90379
    R2        2.90246   0.00033   0.00000   0.00151   0.00151   2.90398
    R3        2.05653  -0.00032   0.00000  -0.00091  -0.00091   2.05561
    R4        2.05712  -0.00036   0.00000  -0.00104  -0.00104   2.05608
    R5        2.90410  -0.00006   0.00000   0.00031   0.00031   2.90441
    R6        2.90433   0.00000   0.00000   0.00056   0.00056   2.90489
    R7        2.05741  -0.00110   0.00000  -0.00315  -0.00315   2.05426
    R8        2.90513  -0.00002   0.00000  -0.00034  -0.00034   2.90479
    R9        2.90564  -0.00042   0.00000  -0.00190  -0.00190   2.90374
   R10        2.05550  -0.00053   0.00000  -0.00151  -0.00151   2.05399
   R11        2.90892   0.00005   0.00000   0.00002   0.00002   2.90894
   R12        2.05684  -0.00054   0.00000  -0.00153  -0.00153   2.05531
   R13        2.05748  -0.00087   0.00000  -0.00248  -0.00248   2.05501
   R14        2.90815  -0.00006   0.00000  -0.00040  -0.00040   2.90774
   R15        2.05562  -0.00038   0.00000  -0.00109  -0.00109   2.05453
   R16        2.05589  -0.00024   0.00000  -0.00068  -0.00068   2.05521
   R17        2.90763   0.00001   0.00000  -0.00006  -0.00006   2.90757
   R18        2.05414   0.00004   0.00000   0.00012   0.00012   2.05426
   R19        2.90638  -0.00009   0.00000  -0.00052  -0.00052   2.90586
   R20        2.05582  -0.00026   0.00000  -0.00075  -0.00075   2.05507
   R21        2.05614  -0.00051   0.00000  -0.00146  -0.00146   2.05468
   R22        2.90336   0.00004   0.00000  -0.00006  -0.00006   2.90330
   R23        2.91442  -0.00046   0.00000  -0.00186  -0.00186   2.91256
   R24        2.05095  -0.00049   0.00000  -0.00139  -0.00139   2.04956
   R25        2.05845  -0.00110   0.00000  -0.00314  -0.00314   2.05531
   R26        2.05372   0.00006   0.00000   0.00017   0.00017   2.05389
   R27        2.74942  -0.00144   0.00000  -0.00383  -0.00383   2.74559
   R28        2.04825  -0.00110   0.00000  -0.00311  -0.00311   2.04514
   R29        2.88469  -0.00037   0.00000  -0.00123  -0.00123   2.88346
   R30        2.28571  -0.00573   0.00000  -0.00572  -0.00572   2.27999
   R31        2.53463   0.00049   0.00000   0.00087   0.00087   2.53549
   R32        2.76507  -0.00019   0.00000  -0.00059  -0.00058   2.76449
   R33        2.93082  -0.00034   0.00000  -0.00078  -0.00078   2.93004
   R34        2.05434  -0.00056   0.00000  -0.00158  -0.00158   2.05276
   R35        2.75427  -0.00056   0.00000  -0.00198  -0.00197   2.75230
   R36        2.74861  -0.00087   0.00000  -0.00232  -0.00232   2.74629
   R37        2.87532   0.00026   0.00000   0.00091   0.00090   2.87622
   R38        2.04861  -0.00082   0.00000  -0.00231  -0.00231   2.04631
   R39        2.06978  -0.00092   0.00000  -0.00269  -0.00269   2.06708
   R40        2.89445  -0.00023   0.00000  -0.00060  -0.00061   2.89385
   R41        2.05291  -0.00072   0.00000  -0.00204  -0.00204   2.05087
   R42        2.05010  -0.00073   0.00000  -0.00205  -0.00205   2.04805
   R43        2.04589  -0.00048   0.00000  -0.00134  -0.00134   2.04455
   R44        2.04753   0.00023   0.00000   0.00065   0.00065   2.04818
   R45        2.88347  -0.00049   0.00000  -0.00164  -0.00164   2.88183
   R46        2.05281  -0.00027   0.00000  -0.00076  -0.00076   2.05205
   R47        2.07050  -0.00051   0.00000  -0.00148  -0.00148   2.06902
   R48        2.89518   0.00026   0.00000   0.00098   0.00098   2.89616
   R49        2.90163   0.00000   0.00000  -0.00002  -0.00002   2.90161
   R50        2.05841  -0.00027   0.00000  -0.00078  -0.00078   2.05762
   R51        2.90898   0.00018   0.00000   0.00048   0.00048   2.90945
   R52        2.05880  -0.00085   0.00000  -0.00243  -0.00243   2.05637
   R53        2.04924  -0.00010   0.00000  -0.00027  -0.00027   2.04897
   R54        2.93313   0.00011   0.00000   0.00037   0.00037   2.93351
   R55        2.05409  -0.00109   0.00000  -0.00310  -0.00310   2.05100
   R56        2.05049  -0.00053   0.00000  -0.00149  -0.00149   2.04900
   R57        2.91058   0.00051   0.00000   0.00189   0.00189   2.91246
   R58        2.05050  -0.00008   0.00000  -0.00022  -0.00022   2.05028
   R59        2.05044  -0.00055   0.00000  -0.00155  -0.00155   2.04889
   R60        2.05765  -0.00060   0.00000  -0.00173  -0.00173   2.05592
   R61        2.05136  -0.00025   0.00000  -0.00070  -0.00070   2.05066
   R62        1.87780   0.00082   0.00000   0.00167   0.00167   1.87948
    A1        1.91383  -0.00010   0.00000   0.00023   0.00023   1.91406
    A2        1.92042   0.00005   0.00000   0.00020   0.00020   1.92062
    A3        1.92219  -0.00005   0.00000  -0.00106  -0.00106   1.92113
    A4        1.92073   0.00004   0.00000   0.00033   0.00033   1.92105
    A5        1.92227   0.00006   0.00000   0.00012   0.00012   1.92238
    A6        1.86395   0.00000   0.00000   0.00018   0.00018   1.86413
    A7        1.90918   0.00001   0.00000  -0.00086  -0.00086   1.90832
    A8        1.91301  -0.00010   0.00000  -0.00149  -0.00149   1.91153
    A9        1.91365   0.00000   0.00000  -0.00031  -0.00031   1.91334
   A10        1.90313  -0.00001   0.00000   0.00114   0.00113   1.90426
   A11        1.91063   0.00003   0.00000   0.00057   0.00057   1.91119
   A12        1.91416   0.00007   0.00000   0.00096   0.00096   1.91512
   A13        1.90854   0.00000   0.00000   0.00011   0.00011   1.90865
   A14        1.90856  -0.00002   0.00000  -0.00063  -0.00063   1.90793
   A15        1.91478  -0.00002   0.00000  -0.00015  -0.00015   1.91463
   A16        1.90702  -0.00003   0.00000  -0.00043  -0.00043   1.90659
   A17        1.91109   0.00001   0.00000  -0.00010  -0.00010   1.91100
   A18        1.91378   0.00007   0.00000   0.00118   0.00118   1.91496
   A19        1.91552   0.00003   0.00000   0.00041   0.00041   1.91593
   A20        1.91864   0.00001   0.00000   0.00033   0.00033   1.91897
   A21        1.92516  -0.00002   0.00000  -0.00046  -0.00046   1.92470
   A22        1.94245  -0.00006   0.00000  -0.00054  -0.00054   1.94191
   A23        1.90889   0.00006   0.00000   0.00069   0.00069   1.90958
   A24        1.85241  -0.00002   0.00000  -0.00046  -0.00046   1.85195
   A25        1.91786   0.00003   0.00000   0.00059   0.00059   1.91845
   A26        1.92339  -0.00004   0.00000  -0.00063  -0.00063   1.92276
   A27        1.92211   0.00001   0.00000   0.00024   0.00024   1.92235
   A28        1.92087  -0.00002   0.00000  -0.00037  -0.00037   1.92049
   A29        1.91380   0.00005   0.00000   0.00090   0.00090   1.91470
   A30        1.86520  -0.00003   0.00000  -0.00074  -0.00074   1.86446
   A31        1.89889   0.00004   0.00000  -0.00037  -0.00037   1.89852
   A32        1.93859  -0.00006   0.00000  -0.00183  -0.00183   1.93676
   A33        1.92034  -0.00007   0.00000  -0.00059  -0.00059   1.91976
   A34        1.88965  -0.00002   0.00000   0.00186   0.00186   1.89150
   A35        1.91270   0.00005   0.00000   0.00111   0.00111   1.91381
   A36        1.90332   0.00004   0.00000  -0.00011  -0.00011   1.90321
   A37        1.91522   0.00013   0.00000   0.00064   0.00064   1.91585
   A38        1.92163  -0.00005   0.00000  -0.00012  -0.00012   1.92151
   A39        1.92472  -0.00010   0.00000  -0.00106  -0.00106   1.92366
   A40        1.91702   0.00010   0.00000   0.00164   0.00164   1.91866
   A41        1.92067  -0.00006   0.00000  -0.00037  -0.00037   1.92031
   A42        1.86406  -0.00001   0.00000  -0.00075  -0.00076   1.86330
   A43        1.90936  -0.00005   0.00000  -0.00039  -0.00039   1.90897
   A44        1.89025   0.00007   0.00000   0.00257   0.00257   1.89282
   A45        1.91608   0.00008   0.00000   0.00099   0.00099   1.91708
   A46        1.92909   0.00003   0.00000  -0.00131  -0.00132   1.92777
[...]
      9          6           0       -2.941878    0.585716    1.353230
     10          6           0       -1.814298    0.145859   -0.867385
     11          6           0       -0.029917    1.813541   -1.068147
     12          6           0        1.340514    2.277112   -0.579049
     13          8           0       -0.621717    2.468036   -1.890341
     14          7           0        2.098862    1.246263    0.129947
     15          6           0        2.710825    1.849484    1.305976
     16          6           0        1.674239    2.871499    1.751200
     17          6           0        1.201768    3.456021    0.417722
     18          6           0        2.988309    0.483941   -0.729640
     19          6           0        3.612200   -0.734865   -0.057528
     20          6           0        2.613574   -1.779603    0.458517
     21          6           0        3.432605   -3.080760    0.609525
     22          6           0        4.710566   -2.882252   -0.247136
     23          6           0        4.498105   -1.560066   -0.999959
     24          7           0       -0.519240    0.697491   -0.505671
     25          1           0       -5.197274   -0.991315    1.524810
     26          1           0       -4.432318   -2.536259    1.241424
     27          1           0       -3.004292   -1.110241    2.692247
     28          1           0       -5.318601   -1.601779   -0.885591
     29          1           0       -0.914199   -1.289072    1.386307
     30          1           0       -1.894455   -2.701082    1.124177
     31          1           0       -3.229676   -1.759178   -2.219351
     32          1           0       -3.251215   -2.985150   -0.975889
     33          1           0       -1.039497   -1.856265   -1.052656
     34          1           0       -5.148963    0.808333   -0.276633
     35          1           0       -4.357000    0.501520   -1.801464
     36          1           0       -2.918536    1.915399   -0.355907
     37          1           0       -3.764467    1.103149    1.841741
     38          1           0       -2.025761    0.986641    1.778893
     39          1           0       -1.923988    0.298929   -1.933869
     40          1           0        1.859492    2.614526   -1.471718
     41          1           0        2.918699    1.101902    2.061590
     42          1           0        3.654428    2.346057    1.061749
     43          1           0        0.858695    2.368831    2.261377
     44          1           0        2.079544    3.619527    2.422669
     45          1           0        0.195774    3.852945    0.448018
     46          1           0        1.856580    4.264387    0.112733
     47          1           0        2.410266    0.146503   -1.584868
     48          1           0        3.785119    1.124313   -1.121949
     49          1           0        4.232946   -0.406967    0.774790
     50          1           0        1.828777   -1.915135   -0.282111
     51          1           0        2.131004   -1.482133    1.382669
     52          1           0        3.693408   -3.255165    1.648005
     53          1           0        2.860844   -3.943264    0.285354
     54          1           0        5.582680   -2.803575    0.394638
     55          1           0        4.891431   -3.712706   -0.920455
     56          1           0        3.965501   -1.739355   -1.932089
     57          1           0        5.430429   -1.064787   -1.251826
     58          1           0        0.078499    0.229315    0.136211
 ---------------------------------------------------------------------
 Rotational constants (GHZ):      0.3402959      0.1570756      0.1262486

 **********************************************************************

            Population analysis using the SCF density.

 **********************************************************************

 Orbital symmetries:
       Occupied  (A) (A) (A) (A) (A) (A) (A) (A) (A) (A) (A) (A)
                 (A) (A) (A) (A) (A) (A) (A) (A) (A) (A) (A) (A)
                 (A) (A) (A) (A) (A) (A) (A) (A) (A) (A) (A) (A)
                 (A) (A) (A) (A) (A) (A) (A) (A) (A) (A) (A) (A)
                 (A) (A) (A) (A) (A) (A) (A) (A) (A) (A) (A) (A)
                 (A) (A) (A) (A) (A) (A) (A) (A) (A) (A) (A) (A)
                 (A) (A) (A) (A) (A) (A) (A) (A) (A) (A) (A) (A)
                 (A) (A) (A) (A) (A) (A) (A)
       Virtual   (A) (A) (A) (A) (A) (A) (A) (A) (A) (A) (A) (A)
                 (A) (A) (A) (A) (A) (A) (A) (A) (A) (A) (A) (A)
                 (A) (A) (A) (A) (A) (A) (A) (A) (A) (A) (A) (A)
                 (A) (A) (A) (A) (A) (A) (A) (A) (A) (A) (A) (A)
                 (A) (A) (A) (A) (A) (A) (A) (A) (A) (A) (A) (A)
                 (A) (A) (A) (A) (A) (A) (A) (A) (A) (A) (A) (A)
                 (A) (A) (A) (A) (A) (A) (A) (A) (A) (A) (A) (A)
                 (A) (A) (A) (A) (A) (A) (A) (A) (A) (A) (A) (A)
                 (A) (A) (A) (A) (A) (A) (A) (A) (A) (A) (A) (A)
                 (A) (A) (A) (A) (A) (A) (A) (A) (A) (A) (A) (A)
                 (A) (A) (A) (A) (A) (A) (A) (A) (A) (A) (A) (A)
                 (A) (A) (A) (A) (A) (A) (A) (A) (A) (A) (A) (A)
                 (A) (A) (A) (A) (A) (A) (A) (A) (A) (A) (A) (A)
                 (A) (A) (A) (A) (A) (A) (A) (A) (A) (A) (A) (A)
                 (A) (A) (A) (A) (A) (A) (A) (A) (A) (A) (A) (A)
                 (A) (A) (A) (A) (A) (A) (A) (A) (A) (A) (A) (A)
                 (A) (A) (A) (A) (A) (A) (A) (A) (A) (A) (A) (A)
                 (A) (A) (A) (A) (A) (A) (A) (A) (A) (A) (A) (A)
                 (A) (A) (A) (A) (A) (A) (A) (A) (A) (A) (A) (A)
                 (A) (A) (A) (A) (A) (A) (A) (A) (A) (A) (A) (A)
                 (A) (A) (A) (A) (A) (A) (A) (A) (A) (A) (A) (A)
                 (A) (A) (A) (A) (A) (A) (A) (A) (A) (A) (A) (A)
                 (A) (A) (A) (A) (A) (A) (A) (A) (A) (A) (A) (A)
                 (A) (A) (A) (A) (A) (A) (A) (A) (A) (A) (A) (A)
                 (A) (A) (A) (A) (A) (A) (A) (A) (A) (A) (A) (A)
                 (A) (A) (A) (A) (A) (A) (A) (A) (A) (A) (A) (A)
                 (A) (A) (A) (A) (A) (A) (A) (A) (A) (A) (A) (A)
                 (A) (A) (A) (A) (A) (A) (A) (A) (A) (A) (A) (A)
                 (A)
 The electronic state is 1-A.
 Alpha  occ. eigenvalues --  -20.50209 -15.56381 -15.55513 -11.32424 -11.25597
 Alpha  occ. eigenvalues --  -11.25049 -11.24983 -11.24911 -11.22540 -11.22419
 Alpha  occ. eigenvalues --  -11.22408 -11.22283 -11.21820 -11.21744 -11.21695
 Alpha  occ. eigenvalues --  -11.21687 -11.21646 -11.21601 -11.21531 -11.21271
 Alpha  occ. eigenvalues --  -11.21026 -11.20971 -11.20757 -11.20692  -1.37066
 Alpha  occ. eigenvalues --   -1.25452  -1.22205  -1.15445  -1.13017  -1.06530
 Alpha  occ. eigenvalues --   -1.03880  -1.03784  -1.03280  -0.99929  -0.98621
 Alpha  occ. eigenvalues --   -0.96560  -0.91236  -0.90759  -0.89097  -0.82975
 Alpha  occ. eigenvalues --   -0.81127  -0.80548  -0.79815  -0.79247  -0.78006
 Alpha  occ. eigenvalues --   -0.76445  -0.75444  -0.72078  -0.69216  -0.67831
 Alpha  occ. eigenvalues --   -0.65894  -0.64939  -0.63726  -0.63026  -0.62955
 Alpha  occ. eigenvalues --   -0.61691  -0.61386  -0.60834  -0.59500  -0.58401
 Alpha  occ. eigenvalues --   -0.57627  -0.57027  -0.56205  -0.55810  -0.55222
 Alpha  occ. eigenvalues --   -0.54733  -0.54510  -0.54199  -0.54030  -0.53571
 Alpha  occ. eigenvalues --   -0.50776  -0.49548  -0.48551  -0.48113  -0.48024
 Alpha  occ. eigenvalues --   -0.47512  -0.47245  -0.46630  -0.46319  -0.46038
 Alpha  occ. eigenvalues --   -0.45983  -0.45932  -0.45785  -0.45493  -0.44983
 Alpha  occ. eigenvalues --   -0.41341  -0.41056  -0.40363  -0.39908  -0.36252
 Alpha  occ. eigenvalues --   -0.35273
 Alpha virt. eigenvalues --    0.19031   0.20784   0.21693   0.22296   0.23400
 Alpha virt. eigenvalues --    0.23901   0.25300   0.26433   0.27026   0.27420
 Alpha virt. eigenvalues --    0.27756   0.27918   0.28349   0.29303   0.29571
 Alpha virt. eigenvalues --    0.30086   0.30394   0.30956   0.31223   0.31432
 Alpha virt. eigenvalues --    0.31823   0.32613   0.33498   0.33698   0.34064
 Alpha virt. eigenvalues --    0.34582   0.34713   0.35588   0.35769   0.36288
 Alpha virt. eigenvalues --    0.36546   0.36846   0.37317   0.37749   0.38168
 Alpha virt. eigenvalues --    0.38866   0.39352   0.39669   0.39855   0.40561
 Alpha virt. eigenvalues --    0.40982   0.41305   0.41917   0.42524   0.43001
 Alpha virt. eigenvalues --    0.44003   0.44969   0.45352   0.45516   0.45938
 Alpha virt. eigenvalues --    0.46808   0.47130   0.47223   0.47293   0.49488
 Alpha virt. eigenvalues --    0.50168   0.51261   0.51918   0.52823   0.53682
 Alpha virt. eigenvalues --    0.54897   0.57793   0.63935   0.70494   0.70887
 Alpha virt. eigenvalues --    0.72944   0.73111   0.73648   0.73929   0.74475
 Alpha virt. eigenvalues --    0.74953   0.75277   0.75911   0.76434   0.76566
 Alpha virt. eigenvalues --    0.77691   0.78962   0.79759   0.80870   0.82634
 Alpha virt. eigenvalues --    0.83374   0.85681   0.86502   0.87586   0.88907
 Alpha virt. eigenvalues --    0.89404   0.89593   0.90160   0.91348   0.92234
 Alpha virt. eigenvalues --    0.92474   0.93161   0.93285   0.93864   0.94101
 Alpha virt. eigenvalues --    0.94508   0.94979   0.95543   0.96783   0.98019
 Alpha virt. eigenvalues --    0.98924   0.99566   1.01304   1.01382   1.01950
 Alpha virt. eigenvalues --    1.02905   1.03953   1.04399   1.05338   1.05506
 Alpha virt. eigenvalues --    1.05760   1.06262   1.07036   1.07765   1.09219
 Alpha virt. eigenvalues --    1.10231   1.10930   1.11492   1.11908   1.12372
 Alpha virt. eigenvalues --    1.12576   1.13261   1.13777   1.14156   1.15266
 Alpha virt. eigenvalues --    1.15393   1.15552   1.15772   1.15803   1.16477
 Alpha virt. eigenvalues --    1.16683   1.16861   1.17498   1.17807   1.18239
 Alpha virt. eigenvalues --    1.19906   1.20028   1.20624   1.20761   1.21696
 Alpha virt. eigenvalues --    1.22164   1.22706   1.23138   1.23533   1.23831
 Alpha virt. eigenvalues --    1.24485   1.24744   1.25467   1.25916   1.26110
 Alpha virt. eigenvalues --    1.27719   1.27872   1.29124   1.30528   1.31141
 Alpha virt. eigenvalues --    1.31565   1.33762   1.34968   1.37319   1.37604
 Alpha virt. eigenvalues --    1.40254   1.40708   1.41129   1.42355   1.43055
 Alpha virt. eigenvalues --    1.43851   1.44892   1.47267   1.47944   1.48826
 Alpha virt. eigenvalues --    1.52160   1.53265   1.55627   1.57797   1.60497
 Alpha virt. eigenvalues --    1.63902   1.65125   1.66975   1.67654   1.68038
 Alpha virt. eigenvalues --    1.68560   1.70681   1.73884   1.75765   1.76962
 Alpha virt. eigenvalues --    1.78737   1.82597   1.83538   1.86078   1.88938
 Alpha virt. eigenvalues --    1.90280   1.93120   1.93628   1.95051   1.96121
 Alpha virt. eigenvalues --    1.97140   1.98351   1.98430   2.00297   2.00525
 Alpha virt. eigenvalues --    2.01781   2.03462   2.04604   2.06269   2.07532
 Alpha virt. eigenvalues --    2.08344   2.09050   2.09869   2.11005   2.11684
 Alpha virt. eigenvalues --    2.12127   2.13679   2.14041   2.15541   2.16558
 Alpha virt. eigenvalues --    2.17282   2.18839   2.19331   2.20389   2.20811
 Alpha virt. eigenvalues --    2.21247   2.22406   2.24021   2.24758   2.26282
 Alpha virt. eigenvalues --    2.27384   2.28180   2.29301   2.30176   2.31510
 Alpha virt. eigenvalues --    2.31966   2.33229   2.34654   2.35721   2.37252
 Alpha virt. eigenvalues --    2.38047   2.38571   2.38974   2.40081   2.40503
 Alpha virt. eigenvalues --    2.41083   2.42814   2.43482   2.43697   2.44797
 Alpha virt. eigenvalues --    2.45018   2.46993   2.48674   2.49682   2.50384
 Alpha virt. eigenvalues --    2.51566   2.52245   2.54146   2.54650   2.55227
 Alpha virt. eigenvalues --    2.56469   2.57620   2.61622   2.61943   2.63015
 Alpha virt. eigenvalues --    2.64575   2.65980   2.66732   2.68430   2.68782
 Alpha virt. eigenvalues --    2.69265   2.70616   2.72237   2.73378   2.73890
 Alpha virt. eigenvalues --    2.74144   2.74975   2.76284   2.76745   2.78540
 Alpha virt. eigenvalues --    2.79660   2.81766   2.82832   2.83353   2.85293
 Alpha virt. eigenvalues --    2.86785   2.88633   2.91156   2.93116   2.93837
 Alpha virt. eigenvalues --    2.95438   2.96821   2.99387   2.99831   3.00098
 Alpha virt. eigenvalues --    3.01132   3.02674   3.03100   3.04674   3.04947
 Alpha virt. eigenvalues --    3.05783   3.07936   3.09017   3.10131   3.11122
 Alpha virt. eigenvalues --    3.13272   3.15656   3.16272   3.19040   3.19723
 Alpha virt. eigenvalues --    3.21688   3.23419   3.25216   3.30558   3.32795
 Alpha virt. eigenvalues --    3.39967   3.47662   3.62709   4.51720   4.56553
 Alpha virt. eigenvalues --    4.59848   4.61588   4.63884   4.64918   4.70781
 Alpha virt. eigenvalues --    4.72082   4.73133   4.73784   4.75441   4.79009
 Alpha virt. eigenvalues --    4.85619   4.95589   4.95873   4.99562   5.02989
 Alpha virt. eigenvalues --    5.05699   5.08764   5.10438   5.19648   5.24930
 Alpha virt. eigenvalues --    5.27403   5.28926
          Condensed to atoms (all electrons):
 Mulliken atomic charges:
              1
     1  C   -0.308450
     2  C   -0.172810
     3  C   -0.174972
     4  C   -0.320731
     5  C   -0.314756
     6  C   -0.196408
     7  C   -0.321442
     8  C   -0.179634
     9  C   -0.315910
    10  C    0.086462
    11  C    0.758660
    12  C   -0.019280
    13  O   -0.642726
    14  N   -0.652960
    15  C   -0.102365
    16  C   -0.331735
    17  C   -0.359383
    18  C   -0.083213
    19  C   -0.184487
    20  C   -0.315911
    21  C   -0.328938
    22  C   -0.328323
    23  C   -0.317620
    24  N   -0.846948
    25  H    0.160419
    26  H    0.157693
    27  H    0.164239
    28  H    0.166494
    29  H    0.154694
    30  H    0.164724
    31  H    0.166465
    32  H    0.161792
    33  H    0.172782
    34  H    0.162119
    35  H    0.169200
    36  H    0.198380
    37  H    0.161639
    38  H    0.161879
    39  H    0.203217
    40  H    0.193346
    41  H    0.172082
    42  H    0.139919
    43  H    0.173096
    44  H    0.174559
    45  H    0.203297
    46  H    0.179047
    47  H    0.166829
    48  H    0.142648
    49  H    0.162501
    50  H    0.158436
    51  H    0.168308
    52  H    0.164659
    53  H    0.167469
    54  H    0.163102
    55  H    0.169188
    56  H    0.156980
    57  H    0.167059
    58  H    0.425618
 Sum of Mulliken atomic charges =   0.00000
 Mulliken charges with hydrogens summed into heavy atoms:
              1
     1  C    0.009662
     2  C   -0.008571
     3  C   -0.008478
     4  C   -0.001314
     5  C    0.013500
     6  C   -0.023625
     7  C    0.009877
     8  C    0.018746
     9  C    0.007608
    10  C    0.289679
    11  C    0.758660
    12  C    0.174066
    13  O   -0.642726
    14  N   -0.652960
    15  C    0.209636
    16  C    0.015920
    17  C    0.022962
    18  C    0.226264
    19  C   -0.021986
    20  C    0.010833
    21  C    0.003190
    22  C    0.003968
    23  C    0.006419
    24  N   -0.421330
 Sum of Mulliken charges with hydrogens summed into heavy atoms =   0.00000
 Electronic spatial extent (au):  <R**2>=           9215.4335
 Charge=              0.0000 electrons
 Dipole moment (field-independent basis, Debye):
    X=              2.0628    Y=             -1.9925    Z=              2.6618  Tot=              3.9129
 Quadrupole moment (field-independent basis, Debye-Ang):
   XX=           -142.1055   YY=           -153.2213   ZZ=           -154.1827
   XY=              6.4285   XZ=             -1.5217   YZ=              9.6934
 Traceless Quadrupole moment (field-independent basis, Debye-Ang):
   XX=              7.7310   YY=             -3.3848   ZZ=             -4.3462
   XY=              6.4285   XZ=             -1.5217   YZ=              9.6934
 Octapole moment (field-independent basis, Debye-Ang**2):
  XXX=             11.1485  YYY=              5.3974  ZZZ=              7.4281  XYY=             18.7327
  XXY=             12.2468  XXZ=             -0.3368  XZZ=             10.1313  YZZ=            -13.0145
  YYZ=             22.5691  XYZ=             -6.6662
 Hexadecapole moment (field-independent basis, Debye-Ang**3):
 XXXX=          -8183.4599 YYYY=          -3333.3739 ZZZZ=          -1177.4969 XXXY=             12.7775
 XXXZ=             25.6802 YYYX=             69.0638 YYYZ=             68.6728 ZZZX=             12.2447
 ZZZY=             27.7487 XXYY=          -1921.0346 XXZZ=          -1558.0052 YYZZ=           -797.0961
 XXYZ=              5.8967 YYXZ=            -20.1714 ZZXY=             17.6323
 N-N= 2.281497135441D+03 E-N=-6.892900657538D+03  KE= 9.981730217921D+02
 1\1\GINC-I7864\FOpt\RHF\6-31G(d)\C21H34N2O1\ROOT\16-Oct-2018\0\\# RHF/
 6-31G* Opt=(Redundant) SCF=Tight\\<qmtool> simtype="Geometry optimizat
 ion" </qmtool> final_drug_opt\\0,1\C,8.617536309,-8.5644574443,1.42477
 47981\C,8.3351726532,-7.8140760682,0.1136298407\C,10.1240563239,-8.841
 8468515,1.5475411795\C,9.1056783598,-6.4844210801,0.1120386777\C,10.88
 96275244,-7.5088914991,1.5371394414\C,10.6166638423,-6.7582459262,0.22
 22749579\C,10.5821525728,-9.698514387,0.3569860511\C,10.3065993443,-8.
 9513950092,-0.9583089656\C,8.8013969565,-8.6667649236,-1.0771523546\C,
 11.1057259377,-7.6329581631,-0.945412877\C,11.8058344643,-7.2307173322
 ,-3.2591836396\C,11.6123027815,-6.3916952341,-4.5204456617\O,12.593706
 1221,-8.1438455642,-3.2662107883\N,10.9158276573,-5.1256449691,-4.2914
 105262\C,9.9420255762,-4.9345003371,-5.3575215117\C,9.4621681541,-6.34
 97703829,-5.6473424356\C,10.7612530837,-7.1553596961,-5.5669451002\C,1
 1.809042579,-4.0080371716,-4.0379188036\C,11.1029242927,-2.7377390457,
 -3.5750973556\C,10.3023023305,-2.8722888011,-2.2728169728\C,10.1280233
 465,-1.4272414225,-1.7550420049\C,11.2026006946,-0.5798300701,-2.48554
 59056\C,12.0687518425,-1.5898220436,-3.2535012823\N,11.0352993851,-6.9
 143834569,-2.2067613468\H,8.0630838255,-9.5000938412,1.4454923896\H,8.
 2743852181,-7.9761889729,2.273370671\H,7.2696281833,-7.6161115021,0.02
 87147052\H,10.3248215169,-9.3679839445,2.4772442655\H,8.8712391596,-5.
 9210272246,-0.7882797487\H,8.7891061674,-5.8645106922,0.9476484216\H,1
 1.956126254,-7.6883642534,1.6495863933\H,10.5832272099,-6.8941614119,2
 .3803791376\H,11.1656553656,-5.8198255256,0.2173839977\H,10.0578190643
 ,-10.6512703571,0.3582512797\H,11.6424688931,-9.9244333928,0.442168383
 5\H,10.6430788868,-9.5490353795,-1.7979571766\H,8.2517242363,-9.604975
 5349,-1.1027575839\H,8.5868169567,-8.1550760223,-2.0116735799\H,12.149
 9311656,-7.8742716435,-0.7896762574\H,12.6136485868,-6.2339691352,-4.9
 10922004\H,9.1440510562,-4.2745294223,-5.040160366\H,10.3992523688,-4.
 4974029044,-6.2499941189\H,8.7652368624,-6.6659167402,-4.877663561\H,8
 .965766899,-6.4395745779,-6.6066176565\H,10.6144065033,-8.1933281312,-
 5.2994630931\H,11.2689493941,-7.1395721325,-6.5246760013\H,12.50779085
 96,-4.3139156145,-3.264871066\H,12.4047395358,-3.7830192611,-4.9286494
 301\H,10.4324745092,-2.3934590836,-4.3609503305\H,10.8798618898,-3.457
 7885123,-1.561184985\H,9.355376674,-3.3821148219,-2.4100326732\H,9.133
 5956128,-1.0544602532,-1.9764519717\H,10.242816188,-1.3807251805,-0.67
 77440017\H,10.7291244876,0.1037025819,-3.183578104\H,11.7876724998,0.0
 259191308,-1.8025496475\H,12.8699854695,-1.95937861,-2.6162168106\H,12
 .5314220573,-1.161360337,-4.1368601132\H,10.4480417341,-6.119332443,-2
 .3140762687\\Version=EM64L-G09RevC.01\State=1-A\HF=-998.8383065\RMSD=5
 .770e-09\RMSF=1.534e-06\Dipole=-0.9877527,1.1790637,-0.0638973\Quadrup
 ole=-4.167804,-2.4817559,6.6495599,6.300106,2.8591017,-4.3849375\PG=C0
 1 [X(C21H34N2O1)]\\@


 At the touch of love, everyone becomves a poet.
                                -- Plato
 Job cpu time:  0 days 13 hours 32 minutes 34.9 seconds.
 File lengths (MBytes):  RWF=    122 Int=      0 D2E=      0 Chk=     18 Scr=      1
 Normal termination of Gaussian 09 at Tue Oct 16 13:22:01 2018.
