 Entering Gaussian System, Link 0=g09
 Input=ligand.gjf
 Output=ligand.log
 Initial command:
 /home/sugarlin1732/bin/g09c01//g09/l1.exe /work1/sugarlin1732/Docking/Gau-3814.inp -scrdir=/work1/sugarlin1732/Docking/
 Entering Link 1 = /home/sugarlin1732/bin/g09c01//g09/l1.exe PID=      3815.
  
 Copyright (c) 1988,1990,1992,1993,1995,1998,2003,2009,2011,
            Gaussian, Inc.  All Rights Reserved.
  
 This is part of the Gaussian(R) 09 program.  It is based on
 the Gaussian(R) 03 system (copyright 2003, Gaussian, Inc.),
 the Gaussian(R) 98 system (copyright 1998, Gaussian, Inc.),
 the Gaussian(R) 94 system (copyright 1995, Gaussian, Inc.),
 the Gaussian 92(TM) system (copyright 1992, Gaussian, Inc.),
 the Gaussian 90(TM) system (copyright 1990, Gaussian, Inc.),
 the Gaussian 88(TM) system (copyright 1988, Gaussian, Inc.),
 the Gaussian 86(TM) system (copyright 1986, Carnegie Mellon
 University), and the Gaussian 82(TM) system (copyright 1983,
 Carnegie Mellon University). Gaussian is a federally registered
 trademark of Gaussian, Inc.
  
 This software contains proprietary and confidential information,
 including trade secrets, belonging to Gaussian, Inc.
  
 This software is provided under written license and may be
 used, copied, transmitted, or stored only in accord with that
 written license.
  
 The following legend is applicable only to US Government
 contracts under FAR:
  
                    RESTRICTED RIGHTS LEGEND
  
 Use, reproduction and disclosure by the US Government is
 subject to restrictions as set forth in subparagraphs (a)
 and (c) of the Commercial Computer Software - Restricted
 Rights clause in FAR 52.227-19.
  
 Gaussian, Inc.
 340 Quinnipiac St., Bldg. 40, Wallingford CT 06492
  
  
 ---------------------------------------------------------------
 Warning -- This program may not be used in any manner that
 competes with the business of Gaussian, Inc. or will provide
 assistance to any competitor of Gaussian, Inc.  The licensee
 of this program is prohibited from giving any competitor of
 Gaussian, Inc. access to this program.  By using this program,
 the user acknowledges that Gaussian, Inc. is engaged in the
 business of creating and licensing software in the field of
 computational chemistry and represents and warrants to the
 licensee that it is not a competitor of Gaussian, Inc. and that
 it will not use this program in any manner prohibited above.
 ---------------------------------------------------------------
  

 Cite this work as:
 Gaussian 09, Revision C.01,
 M. J. Frisch, G. W. Trucks, H. B. Schlegel, G. E. Scuseria, 
 M. A. Robb, J. R. Cheeseman, G. Scalmani, V. Barone, B. Mennucci, 
 G. A. Petersson, H. Nakatsuji, M. Caricato, X. Li, H. P. Hratchian, 
 A. F. Izmaylov, J. Bloino, G. Zheng, J. L. Sonnenberg, M. Hada, 
 M. Ehara, K. Toyota, R. Fukuda, J. Hasegawa, M. Ishida, T. Nakajima, 
 Y. Honda, O. Kitao, H. Nakai, T. Vreven, J. A. Montgomery, Jr., 
 J. E. Peralta, F. Ogliaro, M. Bearpark, J. J. Heyd, E. Brothers, 
 K. N. Kudin, V. N. Staroverov, T. Keith, R. Kobayashi, J. Normand, 
 K. Raghavachari, A. Rendell, J. C. Burant, S. S. Iyengar, J. Tomasi, 
 M. Cossi, N. Rega, J. M. Millam, M. Klene, J. E. Knox, J. B. Cross, 
 V. Bakken, C. Adamo, J. Jaramillo, R. Gomperts, R. E. Stratmann, 
 O. Yazyev, A. J. Austin, R. Cammi, C. Pomelli, J. W. Ochterski, 
 R. L. Martin, K. Morokuma, V. G. Zakrzewski, G. A. Voth, 
 P. Salvador, J. J. Dannenberg, S. Dapprich, A. D. Daniels, 
 O. Farkas, J. B. Foresman, J. V. Ortiz, J. Cioslowski, 
 and D. J. Fox, Gaussian, Inc., Wallingford CT, 2010.
 
 ******************************************
 Gaussian 09:  EM64L-G09RevC.01 23-Sep-2011
                 4-Oct-2018 
 ******************************************
 %nprocshared=8
 Will use up to    8 processors via shared memory.
 %mem=6GB
 %chk=ligand.chk
 -----------------------------------------------
 #p opt hf/6-31++g(d,p) nosymm geom=connectivity
 -----------------------------------------------
 1/18=20,19=15,38=1,57=2/1,3;
 2/9=110,12=2,15=1,17=6,18=5,40=1/2;
 3/5=1,6=6,7=1111,11=9,16=1,25=1,30=1,71=1/1,2,3;
 4//1;
 5/5=2,38=5/2;
 6/7=2,8=2,9=2,10=2,28=1/1;
 7/30=1/1,2,3,16;
 1/18=20,19=15/3(2);
 2/9=110,15=1/2;
 99//99;
 2/9=110,15=1/2;
 3/5=1,6=6,7=1111,11=9,16=1,25=1,30=1,71=1/1,2,3;
 4/5=5,16=3/1;
 5/5=2,38=5/2;
 7/30=1/1,2,3,16;
 1/18=20,19=15/3(-5);
 2/9=110,15=1/2;
 6/7=2,8=2,9=2,10=2,19=2,28=1/1;
 99/9=1/99;
 Leave Link    1 at Thu Oct  4 18:02:11 2018, MaxMem=  805306368 cpu:       0.2
 (Enter /home/sugarlin1732/bin/g09c01//g09/l101.exe)
 ------------------------
 BindingDB_50317213_mol_1
 ------------------------
 Charge =  0 Multiplicity = 1
 Symbolic Z-Matrix:
 C                     8.707    -8.208     1.399 
 C                     8.474    -7.529     0.036 
 C                     10.205   -8.519     1.568 
 C                     9.282    -6.22     -0.028 
 C                     11.012   -7.209     1.501 
 C                     10.784   -6.533     0.135 
 C                     10.662   -9.462     0.439 
 C                     10.434   -8.783    -0.925 
 C                     8.934    -8.471    -1.092 
 C                     11.264   -7.479    -0.987 
 C                     11.607   -7.302    -3.408 
 C                     11.416   -6.532    -4.648 
 O                     12.205   -8.4      -3.454 
 N                     10.772   -5.223    -4.408 
 C                     10.135   -4.877    -5.685 
 C                     9.527    -6.196    -6.159 
 C                     10.498   -7.263    -5.648 
 C                     11.736   -4.191    -3.973 
 C                     10.992   -2.96     -3.429 
 C                     10.115   -3.299    -2.22 
 C                     9.933    -1.971    -1.477 
 C                     11.068   -1.05     -1.951 
 C                     11.946   -1.9      -2.876 
 N                     11.138   -6.818    -2.239 
 H                     8.132    -9.134     1.45 
 H                     8.378    -7.545     2.2 
 H                     7.413    -7.308    -0.084 
 H                     10.371   -9.        2.533 
 H                     9.104    -5.732    -0.986 
 H                     8.96     -5.551     0.77 
 H                     12.074   -7.426     1.629 
 H                     10.691   -6.54      2.299 
 H                     11.355   -5.605     0.098 
 H                     10.092   -10.391    0.485 
 H                     11.721   -9.692     0.56 
 H                     10.75    -9.465    -1.714 
 H                     8.361    -9.398    -1.049 
 H                     8.761    -7.997    -2.059 
 H                     12.317   -7.714    -0.818 
 H                     12.388   -6.376    -5.121 
 H                     9.362    -4.121    -5.551 
 H                     10.875   -4.536    -6.411 
 H                     8.549    -6.335    -5.697 
 H                     9.438    -6.222    -7.246 
 H                     9.935    -8.073    -5.18 
 H                     11.092   -7.659    -6.473 
 H                     12.366   -4.59     -3.177 
 H                     12.378   -3.893    -4.804 
 H                     10.377   -2.514    -4.212 
 H                     10.636   -4.005    -1.572 
 H                     9.157    -3.716    -2.533 
 H                     8.969    -1.529    -1.733 
 H                     9.991    -2.131    -0.4 
 H                     10.649   -0.213    -2.511 
 H                     11.648   -0.677    -1.107 
 H                     12.738   -2.374    -2.294 
 H                     12.378   -1.298    -3.677 
 H                     10.697   -5.955    -2.259 
 
 NAtoms=     58 NQM=        0 NQMF=       0 NMMI=     58 NMMIF=      0
                NMic=       0 NMicF=      0.
                    Isotopes and Nuclear Properties:
 (Nuclear quadrupole moments (NQMom) in fm**2, nuclear magnetic moments (NMagM)
  in nuclear magnetons)

  Atom         1           2           3           4           5           6           7           8           9          10
 IAtWgt=          12          12          12          12          12          12          12          12          12          12
 AtmWgt=  12.0000000  12.0000000  12.0000000  12.0000000  12.0000000  12.0000000  12.0000000  12.0000000  12.0000000  12.0000000
 NucSpn=           0           0           0           0           0           0           0           0           0           0
 AtZEff=   0.0000000   0.0000000   0.0000000   0.0000000   0.0000000   0.0000000   0.0000000   0.0000000   0.0000000   0.0000000
 NQMom=    0.0000000   0.0000000   0.0000000   0.0000000   0.0000000   0.0000000   0.0000000   0.0000000   0.0000000   0.0000000
 NMagM=    0.0000000   0.0000000   0.0000000   0.0000000   0.0000000   0.0000000   0.0000000   0.0000000   0.0000000   0.0000000

  Atom        11          12          13          14          15          16          17          18          19          20
 IAtWgt=          12          12          16          14          12          12          12          12          12          12
 AtmWgt=  12.0000000  12.0000000  15.9949146  14.0030740  12.0000000  12.0000000  12.0000000  12.0000000  12.0000000  12.0000000
 NucSpn=           0           0           0           2           0           0           0           0           0           0
 AtZEff=   0.0000000   0.0000000   0.0000000   0.0000000   0.0000000   0.0000000   0.0000000   0.0000000   0.0000000   0.0000000
 NQMom=    0.0000000   0.0000000   0.0000000   2.0440000   0.0000000   0.0000000   0.0000000   0.0000000   0.0000000   0.0000000
 NMagM=    0.0000000   0.0000000   0.0000000   0.4037610   0.0000000   0.0000000   0.0000000   0.0000000   0.0000000   0.0000000

  Atom        21          22          23          24          25          26          27          28          29          30
 IAtWgt=          12          12          12          14           1           1           1           1           1           1
 AtmWgt=  12.0000000  12.0000000  12.0000000  14.0030740   1.0078250   1.0078250   1.0078250   1.0078250   1.0078250   1.0078250
 NucSpn=           0           0           0           2           1           1           1           1           1           1
 AtZEff=   0.0000000   0.0000000   0.0000000   0.0000000   0.0000000   0.0000000   0.0000000   0.0000000   0.0000000   0.0000000
 NQMom=    0.0000000   0.0000000   0.0000000   2.0440000   0.0000000   0.0000000   0.0000000   0.0000000   0.0000000   0.0000000
 NMagM=    0.0000000   0.0000000   0.0000000   0.4037610   2.7928460   2.7928460   2.7928460   2.7928460   2.7928460   2.7928460

  Atom        31          32          33          34          35          36          37          38          39          40
 IAtWgt=           1           1           1           1           1           1           1           1           1           1
 AtmWgt=   1.0078250   1.0078250   1.0078250   1.0078250   1.0078250   1.0078250   1.0078250   1.0078250   1.0078250   1.0078250
 NucSpn=           1           1           1           1           1           1           1           1           1           1
 AtZEff=   0.0000000   0.0000000   0.0000000   0.0000000   0.0000000   0.0000000   0.0000000   0.0000000   0.0000000   0.0000000
 NQMom=    0.0000000   0.0000000   0.0000000   0.0000000   0.0000000   0.0000000   0.0000000   0.0000000   0.0000000   0.0000000
 NMagM=    2.7928460   2.7928460   2.7928460   2.7928460   2.7928460   2.7928460   2.7928460   2.7928460   2.7928460   2.7928460

  Atom        41          42          43          44          45          46          47          48          49          50
 IAtWgt=           1           1           1           1           1           1           1           1           1           1
 AtmWgt=   1.0078250   1.0078250   1.0078250   1.0078250   1.0078250   1.0078250   1.0078250   1.0078250   1.0078250   1.0078250
 NucSpn=           1           1           1           1           1           1           1           1           1           1
 AtZEff=   0.0000000   0.0000000   0.0000000   0.0000000   0.0000000   0.0000000   0.0000000   0.0000000   0.0000000   0.0000000
 NQMom=    0.0000000   0.0000000   0.0000000   0.0000000   0.0000000   0.0000000   0.0000000   0.0000000   0.0000000   0.0000000
 NMagM=    2.7928460   2.7928460   2.7928460   2.7928460   2.7928460   2.7928460   2.7928460   2.7928460   2.7928460   2.7928460

  Atom        51          52          53          54          55          56          57          58
 IAtWgt=           1           1           1           1           1           1           1           1
 AtmWgt=   1.0078250   1.0078250   1.0078250   1.0078250   1.0078250   1.0078250   1.0078250   1.0078250
 NucSpn=           1           1           1           1           1           1           1           1
 AtZEff=   0.0000000   0.0000000   0.0000000   0.0000000   0.0000000   0.0000000   0.0000000   0.0000000
 NQMom=    0.0000000   0.0000000   0.0000000   0.0000000   0.0000000   0.0000000   0.0000000   0.0000000
 NMagM=    2.7928460   2.7928460   2.7928460   2.7928460   2.7928460   2.7928460   2.7928460   2.7928460
 Leave Link  101 at Thu Oct  4 18:02:12 2018, MaxMem=  805306368 cpu:       0.6
 (Enter /home/sugarlin1732/bin/g09c01//g09/l103.exe)

 GradGradGradGradGradGradGradGradGradGradGradGradGradGradGradGradGradGrad
 Berny optimization.
 Initialization pass.
                           ----------------------------
                           !    Initial Parameters    !
                           ! (Angstroms and Degrees)  !
 --------------------------                            --------------------------
 ! Name  Definition              Value          Derivative Info.                !
 --------------------------------------------------------------------------------
 ! R1    R(1,2)                  1.5405         estimate D2E/DX2                !
 ! R2    R(1,3)                  1.5392         estimate D2E/DX2                !
 ! R3    R(1,25)                 1.0912         estimate D2E/DX2                !
 ! R4    R(1,26)                 1.0906         estimate D2E/DX2                !
 ! R5    R(2,4)                  1.5396         estimate D2E/DX2                !
 ! R6    R(2,9)                  1.5399         estimate D2E/DX2                !
 ! R7    R(2,27)                 1.0904         estimate D2E/DX2                !
 ! R8    R(3,5)                  1.5401         estimate D2E/DX2                !
 ! R9    R(3,7)                  1.5404         estimate D2E/DX2                !
 ! R10   R(3,28)                 1.0909         estimate D2E/DX2                !
 ! R11   R(4,6)                  1.5429         estimate D2E/DX2                !
 ! R12   R(4,29)                 1.0898         estimate D2E/DX2                !
 ! R13   R(4,30)                 1.09           estimate D2E/DX2                !
 ! R14   R(5,6)                  1.5411         estimate D2E/DX2                !
 ! R15   R(5,31)                 1.0915         estimate D2E/DX2                !
 ! R16   R(5,32)                 1.0897         estimate D2E/DX2                !
 ! R17   R(6,10)                 1.5441         estimate D2E/DX2                !
 ! R18   R(6,33)                 1.0902         estimate D2E/DX2                !
 ! R19   R(7,8)                  1.5406         estimate D2E/DX2                !
 ! R20   R(7,34)                 1.0909         estimate D2E/DX2                !
 ! R21   R(7,35)                 1.0904         estimate D2E/DX2                !
 ! R22   R(8,9)                  1.5412         estimate D2E/DX2                !
 ! R23   R(8,10)                 1.547          estimate D2E/DX2                !
 ! R24   R(8,36)                 1.0897         estimate D2E/DX2                !
 ! R25   R(9,37)                 1.0906         estimate D2E/DX2                !
 ! R26   R(9,38)                 1.0907         estimate D2E/DX2                !
 ! R27   R(10,24)                1.4214         estimate D2E/DX2                !
 ! R28   R(10,39)                1.0921         estimate D2E/DX2                !
 ! R29   R(11,12)                1.4721         estimate D2E/DX2                !
 ! R30   R(11,13)                1.2511         estimate D2E/DX2                !
 ! R31   R(11,24)                1.3494         estimate D2E/DX2                !
 ! R32   R(12,14)                1.4785         estimate D2E/DX2                !
 ! R33   R(12,17)                1.5418         estimate D2E/DX2                !
 ! R34   R(12,40)                1.0922         estimate D2E/DX2                !
 ! R35   R(14,15)                1.4684         estimate D2E/DX2                !
 ! R36   R(14,18)                1.4777         estimate D2E/DX2                !
 ! R37   R(15,16)                1.5278         estimate D2E/DX2                !
 ! R38   R(15,41)                1.0895         estimate D2E/DX2                !
 ! R39   R(15,42)                1.0913         estimate D2E/DX2                !
 ! R40   R(16,17)                1.5305         estimate D2E/DX2                !
 ! R41   R(16,43)                1.0905         estimate D2E/DX2                !
 ! R42   R(16,44)                1.0909         estimate D2E/DX2                !
 ! R43   R(17,45)                1.0918         estimate D2E/DX2                !
 ! R44   R(17,46)                1.091          estimate D2E/DX2                !
 ! R45   R(18,19)                1.5378         estimate D2E/DX2                !
 ! R46   R(18,47)                1.0907         estimate D2E/DX2                !
 ! R47   R(18,48)                1.0916         estimate D2E/DX2                !
 ! R48   R(19,20)                1.5316         estimate D2E/DX2                !
 ! R49   R(19,23)                1.5296         estimate D2E/DX2                !
 ! R50   R(19,49)                1.091          estimate D2E/DX2                !
 ! R51   R(20,21)                1.5326         estimate D2E/DX2                !
 ! R52   R(20,50)                1.0908         estimate D2E/DX2                !
 ! R53   R(20,51)                1.0907         estimate D2E/DX2                !
 ! R54   R(21,22)                1.5366         estimate D2E/DX2                !
 ! R55   R(21,52)                1.091          estimate D2E/DX2                !
 ! R56   R(21,53)                1.0904         estimate D2E/DX2                !
 ! R57   R(22,23)                1.5326         estimate D2E/DX2                !
 ! R58   R(22,54)                1.0907         estimate D2E/DX2                !
 ! R59   R(22,55)                1.0899         estimate D2E/DX2                !
 ! R60   R(23,56)                1.0912         estimate D2E/DX2                !
 ! R61   R(23,57)                1.0912         estimate D2E/DX2                !
 ! R62   R(24,58)                0.9694         estimate D2E/DX2                !
 ! A1    A(2,1,3)              109.4751         estimate D2E/DX2                !
 ! A2    A(2,1,25)             109.6148         estimate D2E/DX2                !
 ! A3    A(2,1,26)             109.6489         estimate D2E/DX2                !
 ! A4    A(3,1,25)             109.6476         estimate D2E/DX2                !
 ! A5    A(3,1,26)             109.6196         estimate D2E/DX2                !
 ! A6    A(25,1,26)            108.8202         estimate D2E/DX2                !
 ! A7    A(1,2,4)              109.3992         estimate D2E/DX2                !
 ! A8    A(1,2,9)              109.4693         estimate D2E/DX2                !
 ! A9    A(1,2,27)             109.5045         estimate D2E/DX2                !
 ! A10   A(4,2,9)              109.4432         estimate D2E/DX2                !
 ! A11   A(4,2,27)             109.4973         estimate D2E/DX2                !
 ! A12   A(9,2,27)             109.5138         estimate D2E/DX2                !
 ! A13   A(1,3,5)              109.4703         estimate D2E/DX2                !
 ! A14   A(1,3,7)              109.3872         estimate D2E/DX2                !
 ! A15   A(1,3,28)             109.5293         estimate D2E/DX2                !
 ! A16   A(5,3,7)              109.4744         estimate D2E/DX2                !
 ! A17   A(5,3,28)             109.4987         estimate D2E/DX2                !
 ! A18   A(7,3,28)             109.4673         estimate D2E/DX2                !
 ! A19   A(2,4,6)              109.5131         estimate D2E/DX2                !
 ! A20   A(2,4,29)             109.3627         estimate D2E/DX2                !
 ! A21   A(2,4,30)             109.6556         estimate D2E/DX2                !
 ! A22   A(6,4,29)             110.0428         estimate D2E/DX2                !
 ! A23   A(6,4,30)             109.5577         estimate D2E/DX2                !
 ! A24   A(29,4,30)            108.6931         estimate D2E/DX2                !
 ! A25   A(3,5,6)              109.5214         estimate D2E/DX2                !
 ! A26   A(3,5,31)             109.6112         estimate D2E/DX2                !
 ! A27   A(3,5,32)             109.6335         estimate D2E/DX2                !
 ! A28   A(6,5,31)             109.5794         estimate D2E/DX2                !
 ! A29   A(6,5,32)             109.6477         estimate D2E/DX2                !
 ! A30   A(31,5,32)            108.8326         estimate D2E/DX2                !
 ! A31   A(4,6,5)              109.066          estimate D2E/DX2                !
 ! A32   A(4,6,10)             110.4961         estimate D2E/DX2                !
 ! A33   A(4,6,33)             109.4872         estimate D2E/DX2                !
 ! A34   A(5,6,10)             109.2296         estimate D2E/DX2                !
 ! A35   A(5,6,33)             109.0248         estimate D2E/DX2                !
 ! A36   A(10,6,33)            109.5131         estimate D2E/DX2                !
 ! A37   A(3,7,8)              109.5844         estimate D2E/DX2                !
 ! A38   A(3,7,34)             109.5977         estimate D2E/DX2                !
 ! A39   A(3,7,35)             109.629          estimate D2E/DX2                !
 ! A40   A(8,7,34)             109.5926         estimate D2E/DX2                !
 ! A41   A(8,7,35)             109.5685         estimate D2E/DX2                !
 ! A42   A(34,7,35)            108.8532         estimate D2E/DX2                !
 ! A43   A(7,8,9)              109.22           estimate D2E/DX2                !
 ! A44   A(7,8,10)             109.1224         estimate D2E/DX2                !
 ! A45   A(7,8,36)             108.8012         estimate D2E/DX2                !
 ! A46   A(9,8,10)             110.3164         estimate D2E/DX2                !
 ! A47   A(9,8,36)             109.2976         estimate D2E/DX2                !
 ! A48   A(10,8,36)            110.0563         estimate D2E/DX2                !
 ! A49   A(2,9,8)              109.5847         estimate D2E/DX2                !
 ! A50   A(2,9,37)             109.5188         estimate D2E/DX2                !
 ! A51   A(2,9,38)             109.6453         estimate D2E/DX2                !
 ! A52   A(8,9,37)             109.5725         estimate D2E/DX2                !
 ! A53   A(8,9,38)             109.7802         estimate D2E/DX2                !
 ! A54   A(37,9,38)            108.7228         estimate D2E/DX2                !
 ! A55   A(6,10,8)             108.6944         estimate D2E/DX2                !
 ! A56   A(6,10,24)            109.1223         estimate D2E/DX2                !
 ! A57   A(6,10,39)            108.6105         estimate D2E/DX2                !
 ! A58   A(8,10,24)            112.3176         estimate D2E/DX2                !
 ! A59   A(8,10,39)            109.2533         estimate D2E/DX2                !
 ! A60   A(24,10,39)           108.7755         estimate D2E/DX2                !
 ! A61   A(12,11,13)           119.3471         estimate D2E/DX2                !
 ! A62   A(12,11,24)           119.8045         estimate D2E/DX2                !
 ! A63   A(13,11,24)           120.8484         estimate D2E/DX2                !
 ! A64   A(11,12,14)           112.5134         estimate D2E/DX2                !
 ! A65   A(11,12,17)           112.0615         estimate D2E/DX2                !
 ! A66   A(11,12,40)           108.9078         estimate D2E/DX2                !
 ! A67   A(14,12,17)           105.4095         estimate D2E/DX2                !
 ! A68   A(14,12,40)           109.3599         estimate D2E/DX2                !
 ! A69   A(17,12,40)           108.465          estimate D2E/DX2                !
 ! A70   A(12,14,15)           104.8573         estimate D2E/DX2                !
 ! A71   A(12,14,18)           112.4555         estimate D2E/DX2                !
 ! A72   A(15,14,18)           111.9902         estimate D2E/DX2                !
 ! A73   A(14,15,16)           103.8288         estimate D2E/DX2                !
 ! A74   A(14,15,41)           111.366          estimate D2E/DX2                !
 ! A75   A(14,15,42)           110.9781         estimate D2E/DX2                !
 ! A76   A(16,15,41)           110.7858         estimate D2E/DX2                !
 ! A77   A(16,15,42)           109.4645         estimate D2E/DX2                !
 ! A78   A(41,15,42)           110.2489         estimate D2E/DX2                !
 ! A79   A(15,16,17)           104.2302         estimate D2E/DX2                !
 ! A80   A(15,16,43)           109.6032         estimate D2E/DX2                !
 ! A81   A(15,16,44)           111.2338         estimate D2E/DX2                !
 ! A82   A(17,16,43)           109.7952         estimate D2E/DX2                !
 ! A83   A(17,16,44)           111.5806         estimate D2E/DX2                !
 ! A84   A(43,16,44)           110.2377         estimate D2E/DX2                !
 ! A85   A(12,17,16)           105.2934         estimate D2E/DX2                !
 ! A86   A(12,17,45)           112.3803         estimate D2E/DX2                !
 ! A87   A(12,17,46)           109.7783         estimate D2E/DX2                !
 ! A88   A(16,17,45)           109.4613         estimate D2E/DX2                !
 ! A89   A(16,17,46)           110.2424         estimate D2E/DX2                !
 ! A90   A(45,17,46)           109.609          estimate D2E/DX2                !
 ! A91   A(14,18,19)           110.3389         estimate D2E/DX2                !
 ! A92   A(14,18,47)           109.6431         estimate D2E/DX2                !
 ! A93   A(14,18,48)           110.5021         estimate D2E/DX2                !
 ! A94   A(19,18,47)           108.3069         estimate D2E/DX2                !
 ! A95   A(19,18,48)           109.592          estimate D2E/DX2                !
 ! A96   A(47,18,48)           108.405          estimate D2E/DX2                !
 ! A97   A(18,19,20)           112.2778         estimate D2E/DX2                !
 ! A98   A(18,19,23)           112.389          estimate D2E/DX2                !
 ! A99   A(18,19,49)           110.2482         estimate D2E/DX2                !
 ! A100  A(20,19,23)           103.0112         estimate D2E/DX2                !
 ! A101  A(20,19,49)           109.5263         estimate D2E/DX2                !
 ! A102  A(23,19,49)           109.1334         estimate D2E/DX2                !
 ! A103  A(19,20,21)           105.005          estimate D2E/DX2                !
 ! A104  A(19,20,50)           109.7983         estimate D2E/DX2                !
 ! A105  A(19,20,51)           111.164          estimate D2E/DX2                !
 ! A106  A(21,20,50)           109.2424         estimate D2E/DX2                !
 ! A107  A(21,20,51)           111.476          estimate D2E/DX2                !
 ! A108  A(50,20,51)           110.0327         estimate D2E/DX2                !
 ! A109  A(20,21,22)           106.3858         estimate D2E/DX2                !
 ! A110  A(20,21,52)           110.0135         estimate D2E/DX2                !
 ! A111  A(20,21,53)           110.206          estimate D2E/DX2                !
 ! A112  A(22,21,52)           109.7224         estimate D2E/DX2                !
 ! A113  A(22,21,53)           110.6926         estimate D2E/DX2                !
 ! A114  A(52,21,53)           109.7693         estimate D2E/DX2                !
 ! A115  A(21,22,23)           106.0756         estimate D2E/DX2                !
 ! A116  A(21,22,54)           109.5463         estimate D2E/DX2                !
 ! A117  A(21,22,55)           111.0589         estimate D2E/DX2                !
 ! A118  A(23,22,54)           109.6199         estimate D2E/DX2                !
 ! A119  A(23,22,55)           110.6288         estimate D2E/DX2                !
 ! A120  A(54,22,55)           109.8394         estimate D2E/DX2                !
 ! A121  A(19,23,22)           104.1962         estimate D2E/DX2                !
 ! A122  A(19,23,56)           110.1513         estimate D2E/DX2                !
 ! A123  A(19,23,57)           111.3381         estimate D2E/DX2                !
 ! A124  A(22,23,56)           109.5608         estimate D2E/DX2                !
 ! A125  A(22,23,57)           111.338          estimate D2E/DX2                !
 ! A126  A(56,23,57)           110.1107         estimate D2E/DX2                !
 ! A127  A(10,24,11)           124.436          estimate D2E/DX2                !
 ! A128  A(10,24,58)           118.1982         estimate D2E/DX2                !
 ! A129  A(11,24,58)           117.3603         estimate D2E/DX2                !
 ! D1    D(3,1,2,4)            -59.9627         estimate D2E/DX2                !
 ! D2    D(3,1,2,9)             59.9578         estimate D2E/DX2                !
 ! D3    D(3,1,2,27)          -179.9709         estimate D2E/DX2                !
 ! D4    D(25,1,2,4)           179.7302         estimate D2E/DX2                !
 ! D5    D(25,1,2,9)           -60.3493         estimate D2E/DX2                !
 ! D6    D(25,1,2,27)           59.7221         estimate D2E/DX2                !
 ! D7    D(26,1,2,4)            60.3311         estimate D2E/DX2                !
 ! D8    D(26,1,2,9)          -179.7484         estimate D2E/DX2                !
 ! D9    D(26,1,2,27)          -59.6771         estimate D2E/DX2                !
 ! D10   D(2,1,3,5)             59.9367         estimate D2E/DX2                !
 ! D11   D(2,1,3,7)            -60.0153         estimate D2E/DX2                !
 ! D12   D(2,1,3,28)          -179.9945         estimate D2E/DX2                !
 ! D13   D(25,1,3,5)          -179.7762         estimate D2E/DX2                !
 ! D14   D(25,1,3,7)            60.2718         estimate D2E/DX2                !
 ! D15   D(25,1,3,28)          -59.7075         estimate D2E/DX2                !
 ! D16   D(26,1,3,5)           -60.375          estimate D2E/DX2                !
 ! D17   D(26,1,3,7)           179.673          estimate D2E/DX2                !
 ! D18   D(26,1,3,28)           59.6938         estimate D2E/DX2                !
 ! D19   D(1,2,4,6)             60.2564         estimate D2E/DX2                !
 ! D20   D(1,2,4,29)          -179.0837         estimate D2E/DX2                !
 ! D21   D(1,2,4,30)           -59.989          estimate D2E/DX2                !
 ! D22   D(9,2,4,6)            -59.6801         estimate D2E/DX2                !
 ! D23   D(9,2,4,29)            60.9798         estimate D2E/DX2                !
 ! D24   D(9,2,4,30)          -179.9255         estimate D2E/DX2                !
 ! D25   D(27,2,4,6)          -179.731          estimate D2E/DX2                !
 ! D26   D(27,2,4,29)          -59.0711         estimate D2E/DX2                !
 ! D27   D(27,2,4,30)           60.0236         estimate D2E/DX2                !
 ! D28   D(1,2,9,8)            -60.0075         estimate D2E/DX2                !
 ! D29   D(1,2,9,37)            60.2159         estimate D2E/DX2                !
 ! D30   D(1,2,9,38)           179.4352         estimate D2E/DX2                !
 ! D31   D(4,2,9,8)             59.8861         estimate D2E/DX2                !
 ! D32   D(4,2,9,37)          -179.8906         estimate D2E/DX2                !
 ! D33   D(4,2,9,38)           -60.6713         estimate D2E/DX2                !
 ! D34   D(27,2,9,8)           179.9269         estimate D2E/DX2                !
 ! D35   D(27,2,9,37)          -59.8498         estimate D2E/DX2                !
 ! D36   D(27,2,9,38)           59.3696         estimate D2E/DX2                !
 ! D37   D(1,3,5,6)            -60.2227         estimate D2E/DX2                !
 ! D38   D(1,3,5,31)           179.5276         estimate D2E/DX2                !
 ! D39   D(1,3,5,32)            60.1248         estimate D2E/DX2                !
 ! D40   D(7,3,5,6)             59.6759         estimate D2E/DX2                !
 ! D41   D(7,3,5,31)           -60.5739         estimate D2E/DX2                !
 ! D42   D(7,3,5,32)          -179.9766         estimate D2E/DX2                !
 ! D43   D(28,3,5,6)           179.6899         estimate D2E/DX2                !
 ! D44   D(28,3,5,31)           59.4401         estimate D2E/DX2                !
 ! D45   D(28,3,5,32)          -59.9626         estimate D2E/DX2                !
 ! D46   D(1,3,7,8)             60.2092         estimate D2E/DX2                !
 ! D47   D(1,3,7,34)           -60.0873         estimate D2E/DX2                !
 ! D48   D(1,3,7,35)          -179.5043         estimate D2E/DX2                !
 ! D49   D(5,3,7,8)            -59.7403         estimate D2E/DX2                !
 ! D50   D(5,3,7,34)           179.9632         estimate D2E/DX2                !
 ! D51   D(5,3,7,35)            60.5462         estimate D2E/DX2                !
 ! D52   D(28,3,7,8)          -179.7735         estimate D2E/DX2                !
 ! D53   D(28,3,7,34)           59.9299         estimate D2E/DX2                !
 ! D54   D(28,3,7,35)          -59.4871         estimate D2E/DX2                !
 ! D55   D(2,4,6,5)            -60.3091         estimate D2E/DX2                !
 ! D56   D(2,4,6,10)            59.7713         estimate D2E/DX2                !
 ! D57   D(2,4,6,33)          -179.5287         estimate D2E/DX2                !
 ! D58   D(29,4,6,5)           179.4452         estimate D2E/DX2                !
 ! D59   D(29,4,6,10)          -60.4744         estimate D2E/DX2                !
 ! D60   D(29,4,6,33)           60.2256         estimate D2E/DX2                !
 ! D61   D(30,4,6,5)            59.996          estimate D2E/DX2                !
 ! D62   D(30,4,6,10)         -179.9236         estimate D2E/DX2                !
 ! D63   D(30,4,6,33)          -59.2236         estimate D2E/DX2                !
 ! D64   D(3,5,6,4)             60.2445         estimate D2E/DX2                !
 ! D65   D(3,5,6,10)           -60.6137         estimate D2E/DX2                !
 ! D66   D(3,5,6,33)           179.7512         estimate D2E/DX2                !
 ! D67   D(31,5,6,4)          -179.4864         estimate D2E/DX2                !
 ! D68   D(31,5,6,10)           59.6555         estimate D2E/DX2                !
 ! D69   D(31,5,6,33)          -59.9797         estimate D2E/DX2                !
 ! D70   D(32,5,6,4)           -60.0944         estimate D2E/DX2                !
 ! D71   D(32,5,6,10)          179.0475         estimate D2E/DX2                !
 ! D72   D(32,5,6,33)           59.4123         estimate D2E/DX2                !
 ! D73   D(4,6,10,8)           -58.8253         estimate D2E/DX2                !
 ! D74   D(4,6,10,24)           63.9688         estimate D2E/DX2                !
 ! D75   D(4,6,10,39)         -177.5932         estimate D2E/DX2                !
 ! D76   D(5,6,10,8)            61.1569         estimate D2E/DX2                !
 ! D77   D(5,6,10,24)         -176.049          estimate D2E/DX2                !
 ! D78   D(5,6,10,39)          -57.611          estimate D2E/DX2                !
 ! D79   D(33,6,10,8)         -179.5099         estimate D2E/DX2                !
 ! D80   D(33,6,10,24)         -56.7158         estimate D2E/DX2                !
 ! D81   D(33,6,10,39)          61.7222         estimate D2E/DX2                !
 ! D82   D(3,7,8,9)            -60.0895         estimate D2E/DX2                !
 ! D83   D(3,7,8,10)            60.5776         estimate D2E/DX2                !
 ! D84   D(3,7,8,36)          -179.325          estimate D2E/DX2                !
 ! D85   D(34,7,8,9)            60.2101         estimate D2E/DX2                !
 ! D86   D(34,7,8,10)         -179.1227         estimate D2E/DX2                !
 ! D87   D(34,7,8,36)          -59.0253         estimate D2E/DX2                !
 ! D88   D(35,7,8,9)           179.5872         estimate D2E/DX2                !
 ! D89   D(35,7,8,10)          -59.7457         estimate D2E/DX2                !
 ! D90   D(35,7,8,36)           60.3517         estimate D2E/DX2                !
 ! D91   D(7,8,9,2)             59.9816         estimate D2E/DX2                !
 ! D92   D(7,8,9,37)           -60.209          estimate D2E/DX2                !
 ! D93   D(7,8,9,38)          -179.5431         estimate D2E/DX2                !
 ! D94   D(10,8,9,2)           -59.9531         estimate D2E/DX2                !
 ! D95   D(10,8,9,37)          179.8563         estimate D2E/DX2                !
 ! D96   D(10,8,9,38)           60.5222         estimate D2E/DX2                !
 ! D97   D(36,8,9,2)           178.9089         estimate D2E/DX2                !
 ! D98   D(36,8,9,37)           58.7183         estimate D2E/DX2                !
 ! D99   D(36,8,9,38)          -60.6158         estimate D2E/DX2                !
 ! D100  D(7,8,10,6)           -61.1155         estimate D2E/DX2                !
 ! D101  D(7,8,10,24)          178.0386         estimate D2E/DX2                !
 ! D102  D(7,8,10,39)           57.2474         estimate D2E/DX2                !
 ! D103  D(9,8,10,6)            58.8781         estimate D2E/DX2                !
 ! D104  D(9,8,10,24)          -61.9678         estimate D2E/DX2                !
 ! D105  D(9,8,10,39)          177.2409         estimate D2E/DX2                !
 ! D106  D(36,8,10,6)          179.563          estimate D2E/DX2                !
 ! D107  D(36,8,10,24)          58.7171         estimate D2E/DX2                !
 ! D108  D(36,8,10,39)         -62.0741         estimate D2E/DX2                !
 ! D109  D(6,10,24,11)         172.2184         estimate D2E/DX2                !
 ! D110  D(6,10,24,58)          -6.8963         estimate D2E/DX2                !
 ! D111  D(8,10,24,11)         -67.1823         estimate D2E/DX2                !
 ! D112  D(8,10,24,58)         113.703          estimate D2E/DX2                !
 ! D113  D(39,10,24,11)         53.8837         estimate D2E/DX2                !
 ! D114  D(39,10,24,58)       -125.2309         estimate D2E/DX2                !
 ! D115  D(13,11,12,14)       -176.2684         estimate D2E/DX2                !
 ! D116  D(13,11,12,17)         65.1543         estimate D2E/DX2                !
 ! D117  D(13,11,12,40)        -54.8496         estimate D2E/DX2                !
 ! D118  D(24,11,12,14)          3.698          estimate D2E/DX2                !
 ! D119  D(24,11,12,17)       -114.8793         estimate D2E/DX2                !
 ! D120  D(24,11,12,40)        125.1168         estimate D2E/DX2                !
 ! D121  D(12,11,24,10)        179.8138         estimate D2E/DX2                !
 ! D122  D(12,11,24,58)         -1.0648         estimate D2E/DX2                !
 ! D123  D(13,11,24,10)         -0.2203         estimate D2E/DX2                !
 ! D124  D(13,11,24,58)        178.9012         estimate D2E/DX2                !
 ! D125  D(11,12,14,15)       -155.7177         estimate D2E/DX2                !
 ! D126  D(11,12,14,18)         82.3561         estimate D2E/DX2                !
 ! D127  D(17,12,14,15)        -33.3065         estimate D2E/DX2                !
 ! D128  D(17,12,14,18)       -155.2326         estimate D2E/DX2                !
 ! D129  D(40,12,14,15)         83.1215         estimate D2E/DX2                !
 ! D130  D(40,12,14,18)        -38.8046         estimate D2E/DX2                !
 ! D131  D(11,12,17,16)        134.7311         estimate D2E/DX2                !
 ! D132  D(11,12,17,45)         15.6443         estimate D2E/DX2                !
 ! D133  D(11,12,17,46)       -106.6155         estimate D2E/DX2                !
 ! D134  D(14,12,17,16)         12.0297         estimate D2E/DX2                !
 ! D135  D(14,12,17,45)       -107.057          estimate D2E/DX2                !
 ! D136  D(14,12,17,46)        130.6832         estimate D2E/DX2                !
 ! D137  D(40,12,17,16)       -105.007          estimate D2E/DX2                !
 ! D138  D(40,12,17,45)        135.9062         estimate D2E/DX2                !
 ! D139  D(40,12,17,46)         13.6464         estimate D2E/DX2                !
 ! D140  D(12,14,15,16)         41.5217         estimate D2E/DX2                !
 ! D141  D(12,14,15,41)        160.7794         estimate D2E/DX2                !
 ! D142  D(12,14,15,42)        -75.989          estimate D2E/DX2                !
 ! D143  D(18,14,15,16)        163.7511         estimate D2E/DX2                !
 ! D144  D(18,14,15,41)        -76.9912         estimate D2E/DX2                !
 ! D145  D(18,14,15,42)         46.2404         estimate D2E/DX2                !
 ! D146  D(12,14,18,19)       -166.943          estimate D2E/DX2                !
 ! D147  D(12,14,18,47)        -47.7337         estimate D2E/DX2                !
 ! D148  D(12,14,18,48)         71.6975         estimate D2E/DX2                !
 ! D149  D(15,14,18,19)         75.2742         estimate D2E/DX2                !
 ! D150  D(15,14,18,47)       -165.5165         estimate D2E/DX2                !
 ! D151  D(15,14,18,48)        -46.0853         estimate D2E/DX2                !
 ! D152  D(14,15,16,17)        -33.0862         estimate D2E/DX2                !
 ! D153  D(14,15,16,43)         84.378          estimate D2E/DX2                !
 ! D154  D(14,15,16,44)       -153.4593         estimate D2E/DX2                !
 ! D155  D(41,15,16,17)       -152.7399         estimate D2E/DX2                !
 ! D156  D(41,15,16,43)        -35.2756         estimate D2E/DX2                !
 ! D157  D(41,15,16,44)         86.887          estimate D2E/DX2                !
 ! D158  D(42,15,16,17)         85.4715         estimate D2E/DX2                !
 ! D159  D(42,15,16,43)       -157.0642         estimate D2E/DX2                !
 ! D160  D(42,15,16,44)        -34.9015         estimate D2E/DX2                !
 ! D161  D(15,16,17,12)         12.6318         estimate D2E/DX2                !
 ! D162  D(15,16,17,45)        133.6475         estimate D2E/DX2                !
 ! D163  D(15,16,17,46)       -105.7103         estimate D2E/DX2                !
 ! D164  D(43,16,17,12)       -104.6999         estimate D2E/DX2                !
 ! D165  D(43,16,17,45)         16.3159         estimate D2E/DX2                !
 ! D166  D(43,16,17,46)        136.958          estimate D2E/DX2                !
 ! D167  D(44,16,17,12)        132.7717         estimate D2E/DX2                !
 ! D168  D(44,16,17,45)       -106.2126         estimate D2E/DX2                !
 ! D169  D(44,16,17,46)         14.4296         estimate D2E/DX2                !
 ! D170  D(14,18,19,20)         60.4798         estimate D2E/DX2                !
 ! D171  D(14,18,19,23)        176.0682         estimate D2E/DX2                !
 ! D172  D(14,18,19,49)        -61.9398         estimate D2E/DX2                !
 ! D173  D(47,18,19,20)        -59.5378         estimate D2E/DX2                !
 ! D174  D(47,18,19,23)         56.0506         estimate D2E/DX2                !
 ! D175  D(47,18,19,49)        178.0426         estimate D2E/DX2                !
 ! D176  D(48,18,19,20)       -177.6214         estimate D2E/DX2                !
 ! D177  D(48,18,19,23)        -62.033          estimate D2E/DX2                !
 ! D178  D(48,18,19,49)         59.959          estimate D2E/DX2                !
 ! D179  D(18,19,20,21)        157.2804         estimate D2E/DX2                !
 ! D180  D(18,19,20,50)         39.9497         estimate D2E/DX2                !
 ! D181  D(18,19,20,51)        -82.0409         estimate D2E/DX2                !
 ! D182  D(23,19,20,21)         36.1405         estimate D2E/DX2                !
 ! D183  D(23,19,20,50)        -81.1902         estimate D2E/DX2                !
 ! D184  D(23,19,20,51)        156.8192         estimate D2E/DX2                !
 ! D185  D(49,19,20,21)        -79.892          estimate D2E/DX2                !
 ! D186  D(49,19,20,50)        162.7773         estimate D2E/DX2                !
 ! D187  D(49,19,20,51)         40.7867         estimate D2E/DX2                !
 ! D188  D(18,19,23,22)       -159.7901         estimate D2E/DX2                !
 ! D189  D(18,19,23,56)        -42.3577         estimate D2E/DX2                !
 ! D190  D(18,19,23,57)         80.0923         estimate D2E/DX2                !
 ! D191  D(20,19,23,22)        -38.7259         estimate D2E/DX2                !
 ! D192  D(20,19,23,56)         78.7065         estimate D2E/DX2                !
 ! D193  D(20,19,23,57)       -158.8435         estimate D2E/DX2                !
 ! D194  D(49,19,23,22)         77.5869         estimate D2E/DX2                !
 ! D195  D(49,19,23,56)       -164.9807         estimate D2E/DX2                !
 ! D196  D(49,19,23,57)        -42.5306         estimate D2E/DX2                !
 ! D197  D(19,20,21,22)        -19.7499         estimate D2E/DX2                !
 ! D198  D(19,20,21,52)         99.0308         estimate D2E/DX2                !
 ! D199  D(19,20,21,53)       -139.7955         estimate D2E/DX2                !
 ! D200  D(50,20,21,22)         97.9591         estimate D2E/DX2                !
 ! D201  D(50,20,21,52)       -143.2602         estimate D2E/DX2                !
 ! D202  D(50,20,21,53)        -22.0865         estimate D2E/DX2                !
 ! D203  D(51,20,21,22)       -140.2225         estimate D2E/DX2                !
 ! D204  D(51,20,21,52)        -21.4418         estimate D2E/DX2                !
 ! D205  D(51,20,21,53)         99.7319         estimate D2E/DX2                !
 ! D206  D(20,21,22,23)         -4.2692         estimate D2E/DX2                !
 ! D207  D(20,21,22,54)        113.968          estimate D2E/DX2                !
 ! D208  D(20,21,22,55)       -124.5242         estimate D2E/DX2                !
 ! D209  D(52,21,22,23)       -123.2406         estimate D2E/DX2                !
 ! D210  D(52,21,22,54)         -5.0034         estimate D2E/DX2                !
 ! D211  D(52,21,22,55)        116.5044         estimate D2E/DX2                !
 ! D212  D(53,21,22,23)        115.4607         estimate D2E/DX2                !
 ! D213  D(53,21,22,54)       -126.3021         estimate D2E/DX2                !
 ! D214  D(53,21,22,55)         -4.7943         estimate D2E/DX2                !
 ! D215  D(21,22,23,19)         26.6677         estimate D2E/DX2                !
 ! D216  D(21,22,23,56)        -91.172          estimate D2E/DX2                !
 ! D217  D(21,22,23,57)        146.7853         estimate D2E/DX2                !
 ! D218  D(54,22,23,19)        -91.5207         estimate D2E/DX2                !
 ! D219  D(54,22,23,56)        150.6396         estimate D2E/DX2                !
 ! D220  D(54,22,23,57)         28.597          estimate D2E/DX2                !
 ! D221  D(55,22,23,19)        147.2019         estimate D2E/DX2                !
 ! D222  D(55,22,23,56)         29.3622         estimate D2E/DX2                !
 ! D223  D(55,22,23,57)        -92.6805         estimate D2E/DX2                !
 --------------------------------------------------------------------------------
 Trust Radius=3.00D-01 FncErr=1.00D-07 GrdErr=1.00D-07
 Number of steps in this run=    348 maximum allowed number of steps=    348.
 GradGradGradGradGradGradGradGradGradGradGradGradGradGradGradGradGradGrad

 Leave Link  103 at Thu Oct  4 18:02:13 2018, MaxMem=  805306368 cpu:       0.1
 (Enter /home/sugarlin1732/bin/g09c01//g09/l202.exe)
 Symmetry turned off by external request.
 Stoichiometry    C21H34N2O
 Framework group  C1[X(C21H34N2O)]
 Deg. of freedom   168
 Full point group                 C1      NOp   1
                          Input orientation:                          
 ---------------------------------------------------------------------
 Center     Atomic      Atomic             Coordinates (Angstroms)
 Number     Number       Type             X           Y           Z
 ---------------------------------------------------------------------
      1          6           0        8.707000   -8.208000    1.399000
      2          6           0        8.474000   -7.529000    0.036000
      3          6           0       10.205000   -8.519000    1.568000
      4          6           0        9.282000   -6.220000   -0.028000
      5          6           0       11.012000   -7.209000    1.501000
      6          6           0       10.784000   -6.533000    0.135000
      7          6           0       10.662000   -9.462000    0.439000
      8          6           0       10.434000   -8.783000   -0.925000
      9          6           0        8.934000   -8.471000   -1.092000
     10          6           0       11.264000   -7.479000   -0.987000
     11          6           0       11.607000   -7.302000   -3.408000
     12          6           0       11.416000   -6.532000   -4.648000
     13          8           0       12.205000   -8.400000   -3.454000
     14          7           0       10.772000   -5.223000   -4.408000
     15          6           0       10.135000   -4.877000   -5.685000
     16          6           0        9.527000   -6.196000   -6.159000
     17          6           0       10.498000   -7.263000   -5.648000
     18          6           0       11.736000   -4.191000   -3.973000
     19          6           0       10.992000   -2.960000   -3.429000
     20          6           0       10.115000   -3.299000   -2.220000
     21          6           0        9.933000   -1.971000   -1.477000
     22          6           0       11.068000   -1.050000   -1.951000
     23          6           0       11.946000   -1.900000   -2.876000
     24          7           0       11.138000   -6.818000   -2.239000
     25          1           0        8.132000   -9.134000    1.450000
     26          1           0        8.378000   -7.545000    2.200000
     27          1           0        7.413000   -7.308000   -0.084000
     28          1           0       10.371000   -9.000000    2.533000
     29          1           0        9.104000   -5.732000   -0.986000
     30          1           0        8.960000   -5.551000    0.770000
     31          1           0       12.074000   -7.426000    1.629000
     32          1           0       10.691000   -6.540000    2.299000
     33          1           0       11.355000   -5.605000    0.098000
     34          1           0       10.092000  -10.391000    0.485000
     35          1           0       11.721000   -9.692000    0.560000
     36          1           0       10.750000   -9.465000   -1.714000
     37          1           0        8.361000   -9.398000   -1.049000
     38          1           0        8.761000   -7.997000   -2.059000
     39          1           0       12.317000   -7.714000   -0.818000
     40          1           0       12.388000   -6.376000   -5.121000
     41          1           0        9.362000   -4.121000   -5.551000
     42          1           0       10.875000   -4.536000   -6.411000
     43          1           0        8.549000   -6.335000   -5.697000
     44          1           0        9.438000   -6.222000   -7.246000
     45          1           0        9.935000   -8.073000   -5.180000
     46          1           0       11.092000   -7.659000   -6.473000
     47          1           0       12.366000   -4.590000   -3.177000
     48          1           0       12.378000   -3.893000   -4.804000
     49          1           0       10.377000   -2.514000   -4.212000
     50          1           0       10.636000   -4.005000   -1.572000
     51          1           0        9.157000   -3.716000   -2.533000
     52          1           0        8.969000   -1.529000   -1.733000
     53          1           0        9.991000   -2.131000   -0.400000
     54          1           0       10.649000   -0.213000   -2.511000
     55          1           0       11.648000   -0.677000   -1.107000
     56          1           0       12.738000   -2.374000   -2.294000
     57          1           0       12.378000   -1.298000   -3.677000
     58          1           0       10.697000   -5.955000   -2.259000
 ---------------------------------------------------------------------
 Rotational constants (GHZ):      0.3242385      0.1811348      0.1363441
 Leave Link  202 at Thu Oct  4 18:02:13 2018, MaxMem=  805306368 cpu:       0.2
 (Enter /home/sugarlin1732/bin/g09c01//g09/l301.exe)
 Standard basis: 6-31++G(d,p) (6D, 7F)
 Ernie: Thresh=  0.10000D-02 Tol=  0.10000D-05 Strict=F.
 Integral buffers will be    131072 words long.
 Raffenetti 1 integral format.
 Two-electron integral symmetry is turned off.
   660 basis functions,  1040 primitive gaussians,   660 cartesian basis functions
    91 alpha electrons       91 beta electrons
       nuclear repulsion energy      2318.2643901301 Hartrees.
 IExCor=    0 DFT=F Ex=HF Corr=None ExCW=0 ScaHFX=  1.000000
 ScaDFX=  1.000000  1.000000  1.000000  1.000000 ScalE2=  1.000000  1.000000
 IRadAn=      0 IRanWt=     -1 IRanGd=            0 ICorTp=0
 NAtoms=   58 NActive=   58 NUniq=   58 SFac= 1.00D+00 NAtFMM=   60 NAOKFM=F Big=F
 Leave Link  301 at Thu Oct  4 18:02:14 2018, MaxMem=  805306368 cpu:       0.5
 (Enter /home/sugarlin1732/bin/g09c01//g09/l302.exe)
 NPDir=0 NMtPBC=     1 NCelOv=     1 NCel=       1 NClECP=     1 NCelD=      1
         NCelK=      1 NCelE2=     1 NClLst=     1 CellRange=     0.0.
 One-electron integrals computed using PRISM.
 NBasis=   660 RedAO= T  NBF=   660
 NBsUse=   660 1.00D-06 NBFU=   660
 Leave Link  302 at Thu Oct  4 18:02:17 2018, MaxMem=  805306368 cpu:      18.0
 (Enter /home/sugarlin1732/bin/g09c01//g09/l303.exe)
 DipDrv:  MaxL=1.
 Leave Link  303 at Thu Oct  4 18:02:18 2018, MaxMem=  805306368 cpu:       1.9
 (Enter /home/sugarlin1732/bin/g09c01//g09/l401.exe)
 Harris functional with IExCor=  205 diagonalized for initial guess.
 ExpMin= 3.60D-02 ExpMax= 5.48D+03 ExpMxC= 8.25D+02 IAcc=3 IRadAn=         5 AccDes= 0.00D+00
 HarFok:  IExCor=  205 AccDes= 0.00D+00 IRadAn=         5 IDoV= 1
 ScaDFX=  1.000000  1.000000  1.000000  1.000000
 FoFCou: FMM=F IPFlag=           0 FMFlag=      100000 FMFlg1=           0
         NFxFlg=           0 DoJE=T BraDBF=F KetDBF=T FulRan=T
         Omega=  0.000000  0.000000  1.000000  0.000000  0.000000 ICntrl=     500 IOpCl=  0
         NMat0=    1 NMatS0=    1 NMatT0=    0 NMatD0=    1 NMtDS0=    0 NMtDT0=    0
         I1Cent=           4 NGrid=           0.
 Symmetry not used in FoFCou.
 Harris En= -1000.74168567177    
 Leave Link  401 at Thu Oct  4 18:02:36 2018, MaxMem=  805306368 cpu:     132.8
 (Enter /home/sugarlin1732/bin/g09c01//g09/l502.exe)
 Closed shell SCF:
 Requested convergence on RMS density matrix=1.00D-08 within 128 cycles.
 Requested convergence on MAX density matrix=1.00D-06.
 Requested convergence on             energy=1.00D-06.
 No special actions if energy rises.
 Using DIIS extrapolation, IDIIS=  1040.
 Two-electron integral symmetry not used.
 IEnd=     1334302 IEndB=     1334302 NGot=   805306368 MDV=   804424967
 LenX=   804424967 LenY=   803988707
 Fock matrices will be formed incrementally for  20 cycles.

 Cycle   1  Pass 0  IDiag  1:
 FoFCou: FMM=F IPFlag=           0 FMFlag=      100000 FMFlg1=           0
         NFxFlg=           0 DoJE=F BraDBF=F KetDBF=F FulRan=T
         Omega=  0.000000  0.000000  1.000000  0.000000  0.000000 ICntrl=       0 IOpCl=  0
         NMat0=    1 NMatS0=    1 NMatT0=    0 NMatD0=    1 NMtDS0=    0 NMtDT0=    0
         I1Cent=           0 NGrid=           0.
 Symmetry not used in FoFCou.
 E= -997.798596011799    
 DIIS: error= 4.90D-02 at cycle   1 NSaved=   1.
 NSaved= 1 IEnMin= 1 EnMin= -997.798596011799     IErMin= 1 ErrMin= 4.90D-02
 ErrMax= 4.90D-02 EMaxC= 1.00D-01 BMatC= 1.68D+00 BMatP= 1.68D+00
 IDIUse=3 WtCom= 5.10D-01 WtEn= 4.90D-01
 Coeff-Com:  0.100D+01
 Coeff-En:   0.100D+01
 Coeff:      0.100D+01
 Gap=     0.556 Goal=   None    Shift=    0.000
 GapD=    0.556 DampG=2.000 DampE=0.500 DampFc=1.0000 IDamp=-1.
 RMSDP=2.58D-02 MaxDP=2.84D+00              OVMax= 1.28D-01

 Cycle   2  Pass 0  IDiag  1:
 RMSU=  1.72D-02    CP:  1.21D+00
 E= -998.640946621618     Delta-E=       -0.842350609819 Rises=F Damp=F
 DIIS: error= 1.29D-02 at cycle   2 NSaved=   2.
 NSaved= 2 IEnMin= 2 EnMin= -998.640946621618     IErMin= 2 ErrMin= 1.29D-02
 ErrMax= 1.29D-02 EMaxC= 1.00D-01 BMatC= 2.63D-01 BMatP= 1.68D+00
 IDIUse=3 WtCom= 8.71D-01 WtEn= 1.29D-01
 Coeff-Com:  0.211D+00 0.789D+00
 Coeff-En:   0.000D+00 0.100D+01
 Coeff:      0.184D+00 0.816D+00
 Gap=     0.475 Goal=   None    Shift=    0.000
 RMSDP=2.23D-02 MaxDP=2.55D+00 DE=-8.42D-01 OVMax= 6.64D-02

 Cycle   3  Pass 0  IDiag  1:
 RMSU=  9.37D-03    CP:  8.83D-01  5.08D-01
 E= -998.851110521897     Delta-E=       -0.210163900279 Rises=F Damp=F
 DIIS: error= 5.87D-03 at cycle   3 NSaved=   3.
 NSaved= 3 IEnMin= 3 EnMin= -998.851110521897     IErMin= 3 ErrMin= 5.87D-03
 ErrMax= 5.87D-03 EMaxC= 1.00D-01 BMatC= 3.55D-02 BMatP= 2.63D-01
 IDIUse=3 WtCom= 9.41D-01 WtEn= 5.87D-02
 Coeff-Com: -0.209D-01 0.241D+00 0.780D+00
 Coeff-En:   0.000D+00 0.000D+00 0.100D+01
 Coeff:     -0.197D-01 0.227D+00 0.793D+00
 Gap=     0.409 Goal=   None    Shift=    0.000
 RMSDP=4.81D-03 MaxDP=6.29D-01 DE=-2.10D-01 OVMax= 2.27D-02

 Cycle   4  Pass 0  IDiag  1:
 RMSU=  2.48D-03    CP:  9.07D-01  6.25D-01  8.98D-01
 E= -998.882429961431     Delta-E=       -0.031319439533 Rises=F Damp=F
 DIIS: error= 9.58D-04 at cycle   4 NSaved=   4.
 NSaved= 4 IEnMin= 4 EnMin= -998.882429961431     IErMin= 4 ErrMin= 9.58D-04
 ErrMax= 9.58D-04 EMaxC= 1.00D-01 BMatC= 1.03D-03 BMatP= 3.55D-02
 IDIUse=3 WtCom= 9.90D-01 WtEn= 9.58D-03
 Coeff-Com: -0.990D-02 0.287D-01 0.184D+00 0.797D+00
 Coeff-En:   0.000D+00 0.000D+00 0.000D+00 0.100D+01
 Coeff:     -0.980D-02 0.284D-01 0.183D+00 0.799D+00
 Gap=     0.400 Goal=   None    Shift=    0.000
 RMSDP=1.14D-03 MaxDP=3.51D-01 DE=-3.13D-02 OVMax= 4.08D-03

 Cycle   5  Pass 0  IDiag  1:
 RMSU=  6.20D-04    CP:  9.14D-01  6.13D-01  9.39D-01  9.21D-01
 E= -998.883496690952     Delta-E=       -0.001066729521 Rises=F Damp=F
 DIIS: error= 2.33D-04 at cycle   5 NSaved=   5.
 NSaved= 5 IEnMin= 5 EnMin= -998.883496690952     IErMin= 5 ErrMin= 2.33D-04
 ErrMax= 2.33D-04 EMaxC= 1.00D-01 BMatC= 8.38D-05 BMatP= 1.03D-03
 IDIUse=3 WtCom= 9.98D-01 WtEn= 2.33D-03
 Coeff-Com:  0.614D-03-0.158D-01-0.462D-01 0.104D+00 0.958D+00
 Coeff-En:   0.000D+00 0.000D+00 0.000D+00 0.000D+00 0.100D+01
 Coeff:      0.612D-03-0.157D-01-0.461D-01 0.103D+00 0.958D+00
 Gap=     0.400 Goal=   None    Shift=    0.000
 RMSDP=5.26D-04 MaxDP=9.01D-02 DE=-1.07D-03 OVMax= 3.57D-03

 Cycle   6  Pass 0  IDiag  1:
 RMSU=  2.21D-04    CP:  9.18D-01  6.12D-01  9.58D-01  9.68D-01  1.27D+00
 E= -998.883623349369     Delta-E=       -0.000126658417 Rises=F Damp=F
 DIIS: error= 8.41D-05 at cycle   6 NSaved=   6.
 NSaved= 6 IEnMin= 6 EnMin= -998.883623349369     IErMin= 6 ErrMin= 8.41D-05
 ErrMax= 8.41D-05 EMaxC= 1.00D-01 BMatC= 1.06D-05 BMatP= 8.38D-05
 IDIUse=1 WtCom= 1.00D+00 WtEn= 0.00D+00
 Coeff-Com:  0.115D-02-0.734D-02-0.305D-01-0.560D-01 0.223D+00 0.869D+00
 Coeff:      0.115D-02-0.734D-02-0.305D-01-0.560D-01 0.223D+00 0.869D+00
 Gap=     0.400 Goal=   None    Shift=    0.000
 RMSDP=1.31D-04 MaxDP=1.07D-02 DE=-1.27D-04 OVMax= 8.47D-04

 Cycle   7  Pass 0  IDiag  1:
 RMSU=  4.47D-05    CP:  9.18D-01  6.11D-01  9.60D-01  9.82D-01  1.38D+00
                    CP:  1.10D+00
 E= -998.883638613801     Delta-E=       -0.000015264432 Rises=F Damp=F
 DIIS: error= 2.39D-05 at cycle   7 NSaved=   7.
 NSaved= 7 IEnMin= 7 EnMin= -998.883638613801     IErMin= 7 ErrMin= 2.39D-05
 ErrMax= 2.39D-05 EMaxC= 1.00D-01 BMatC= 1.01D-06 BMatP= 1.06D-05
 IDIUse=1 WtCom= 1.00D+00 WtEn= 0.00D+00
 Coeff-Com:  0.223D-03-0.412D-03-0.299D-02-0.248D-01-0.300D-01 0.189D+00
 Coeff-Com:  0.869D+00
 Coeff:      0.223D-03-0.412D-03-0.299D-02-0.248D-01-0.300D-01 0.189D+00
 Coeff:      0.869D+00
 Gap=     0.400 Goal=   None    Shift=    0.000
 RMSDP=3.05D-05 MaxDP=3.92D-03 DE=-1.53D-05 OVMax= 7.71D-04

 Cycle   8  Pass 0  IDiag  1:
 RMSU=  1.38D-05    CP:  9.18D-01  6.11D-01  9.61D-01  9.83D-01  1.39D+00
                    CP:  1.12D+00  1.00D+00
 E= -998.883640713275     Delta-E=       -0.000002099474 Rises=F Damp=F
 DIIS: error= 1.18D-05 at cycle   8 NSaved=   8.
 NSaved= 8 IEnMin= 8 EnMin= -998.883640713275     IErMin= 8 ErrMin= 1.18D-05
 ErrMax= 1.18D-05 EMaxC= 1.00D-01 BMatC= 1.96D-07 BMatP= 1.01D-06
 IDIUse=1 WtCom= 1.00D+00 WtEn= 0.00D+00
 Coeff-Com: -0.164D-03 0.106D-02 0.465D-02 0.862D-02-0.261D-01-0.155D+00
 Coeff-Com:  0.144D-01 0.115D+01
 Coeff:     -0.164D-03 0.106D-02 0.465D-02 0.862D-02-0.261D-01-0.155D+00
 Coeff:      0.144D-01 0.115D+01
 Gap=     0.400 Goal=   None    Shift=    0.000
 RMSDP=2.51D-05 MaxDP=6.35D-03 DE=-2.10D-06 OVMax= 4.00D-04

 Cycle   9  Pass 0  IDiag  1:
 RMSU=  6.71D-06    CP:  9.18D-01  6.10D-01  9.61D-01  9.84D-01  1.39D+00
                    CP:  1.13D+00  1.25D+00  1.33D+00
 E= -998.883641240555     Delta-E=       -0.000000527280 Rises=F Damp=F
 DIIS: error= 3.81D-06 at cycle   9 NSaved=   9.
 NSaved= 9 IEnMin= 9 EnMin= -998.883641240555     IErMin= 9 ErrMin= 3.81D-06
 ErrMax= 3.81D-06 EMaxC= 1.00D-01 BMatC= 2.48D-08 BMatP= 1.96D-07
 IDIUse=1 WtCom= 1.00D+00 WtEn= 0.00D+00
 Coeff-Com: -0.717D-04 0.291D-03 0.144D-02 0.556D-02 0.191D-02-0.668D-01
 Coeff-Com: -0.120D+00 0.174D+00 0.100D+01
 Coeff:     -0.717D-04 0.291D-03 0.144D-02 0.556D-02 0.191D-02-0.668D-01
 Coeff:     -0.120D+00 0.174D+00 0.100D+01
 Gap=     0.400 Goal=   None    Shift=    0.000
 RMSDP=6.91D-06 MaxDP=8.08D-04 DE=-5.27D-07 OVMax= 1.88D-04

 Initial convergence to 1.0D-05 achieved.  Increase integral accuracy.
 Cycle  10  Pass 1  IDiag  1:
 E= -998.883641320862     Delta-E=       -0.000000080307 Rises=F Damp=F
 DIIS: error= 1.69D-06 at cycle   1 NSaved=   1.
 NSaved= 1 IEnMin= 1 EnMin= -998.883641320862     IErMin= 1 ErrMin= 1.69D-06
 ErrMax= 1.69D-06 EMaxC= 1.00D-01 BMatC= 3.16D-09 BMatP= 3.16D-09
 IDIUse=1 WtCom= 1.00D+00 WtEn= 0.00D+00
 Coeff-Com:  0.100D+01
 Coeff:      0.100D+01
 Gap=     0.400 Goal=   None    Shift=    0.000
 RMSDP=6.91D-06 MaxDP=8.08D-04 DE=-8.03D-08 OVMax= 2.56D-05

 Cycle  11  Pass 1  IDiag  1:
 RMSU=  1.41D-06    CP:  1.00D+00
 E= -998.883641327836     Delta-E=       -0.000000006973 Rises=F Damp=F
 DIIS: error= 8.28D-07 at cycle   2 NSaved=   2.
 NSaved= 2 IEnMin= 2 EnMin= -998.883641327836     IErMin= 2 ErrMin= 8.28D-07
 ErrMax= 8.28D-07 EMaxC= 1.00D-01 BMatC= 8.16D-10 BMatP= 3.16D-09
 IDIUse=1 WtCom= 1.00D+00 WtEn= 0.00D+00
 Coeff-Com:  0.432D-01 0.957D+00
 Coeff:      0.432D-01 0.957D+00
 Gap=     0.400 Goal=   None    Shift=    0.000
 RMSDP=8.75D-07 MaxDP=1.43D-04 DE=-6.97D-09 OVMax= 2.38D-05

 Cycle  12  Pass 1  IDiag  1:
 RMSU=  4.96D-07    CP:  1.00D+00  1.15D+00
 E= -998.883641330029     Delta-E=       -0.000000002194 Rises=F Damp=F
 DIIS: error= 6.51D-07 at cycle   3 NSaved=   3.
 NSaved= 3 IEnMin= 3 EnMin= -998.883641330029     IErMin= 3 ErrMin= 6.51D-07
 ErrMax= 6.51D-07 EMaxC= 1.00D-01 BMatC= 4.95D-10 BMatP= 8.16D-10
 IDIUse=1 WtCom= 1.00D+00 WtEn= 0.00D+00
 Coeff-Com: -0.490D+00 0.257D+00 0.123D+01
 Coeff:     -0.490D+00 0.257D+00 0.123D+01
 Gap=     0.400 Goal=   None    Shift=    0.000
 RMSDP=1.08D-06 MaxDP=1.77D-04 DE=-2.19D-09 OVMax= 2.09D-05

 Cycle  13  Pass 1  IDiag  1:
 RMSU=  2.10D-07    CP:  1.00D+00  1.64D+00  1.23D+00
 E= -998.883641331235     Delta-E=       -0.000000001206 Rises=F Damp=F
 DIIS: error= 8.86D-08 at cycle   4 NSaved=   4.
 NSaved= 4 IEnMin= 4 EnMin= -998.883641331235     IErMin= 4 ErrMin= 8.86D-08
 ErrMax= 8.86D-08 EMaxC= 1.00D-01 BMatC= 1.73D-11 BMatP= 4.95D-10
 IDIUse=1 WtCom= 1.00D+00 WtEn= 0.00D+00
 Coeff-Com: -0.120D+00 0.205D-01 0.259D+00 0.840D+00
 Coeff:     -0.120D+00 0.205D-01 0.259D+00 0.840D+00
 Gap=     0.400 Goal=   None    Shift=    0.000
 RMSDP=1.54D-07 MaxDP=3.57D-05 DE=-1.21D-09 OVMax= 3.51D-06

 Cycle  14  Pass 1  IDiag  1:
 RMSU=  7.63D-08    CP:  1.00D+00  1.67D+00  1.23D+00  1.22D+00
 E= -998.883641331307     Delta-E=       -0.000000000072 Rises=F Damp=F
 DIIS: error= 4.54D-08 at cycle   5 NSaved=   5.
 NSaved= 5 IEnMin= 5 EnMin= -998.883641331307     IErMin= 5 ErrMin= 4.54D-08
 ErrMax= 4.54D-08 EMaxC= 1.00D-01 BMatC= 2.82D-12 BMatP= 1.73D-11
 IDIUse=1 WtCom= 1.00D+00 WtEn= 0.00D+00
 Coeff-Com:  0.831D-01-0.350D-01-0.234D+00-0.104D-01 0.120D+01
 Coeff:      0.831D-01-0.350D-01-0.234D+00-0.104D-01 0.120D+01
 Gap=     0.400 Goal=   None    Shift=    0.000
 RMSDP=9.60D-08 MaxDP=1.20D-05 DE=-7.23D-11 OVMax= 1.52D-06

 Cycle  15  Pass 1  IDiag  1:
 RMSU=  2.66D-08    CP:  1.00D+00  1.68D+00  1.21D+00  1.46D+00  1.26D+00
 E= -998.883641331484     Delta-E=       -0.000000000177 Rises=F Damp=F
 DIIS: error= 8.25D-09 at cycle   6 NSaved=   6.
 NSaved= 6 IEnMin= 6 EnMin= -998.883641331484     IErMin= 6 ErrMin= 8.25D-09
 ErrMax= 8.25D-09 EMaxC= 1.00D-01 BMatC= 1.43D-13 BMatP= 2.82D-12
 IDIUse=1 WtCom= 1.00D+00 WtEn= 0.00D+00
 Coeff-Com:  0.240D-01-0.759D-02-0.645D-01-0.477D-01 0.259D+00 0.837D+00
 Coeff:      0.240D-01-0.759D-02-0.645D-01-0.477D-01 0.259D+00 0.837D+00
 Gap=     0.400 Goal=   None    Shift=    0.000
 RMSDP=1.75D-08 MaxDP=2.58D-06 DE=-1.77D-10 OVMax= 1.30D-07

 Cycle  16  Pass 1  IDiag  1:
 RMSU=  7.11D-09    CP:  1.00D+00  1.68D+00  1.20D+00  1.48D+00  1.33D+00
                    CP:  1.09D+00
 E= -998.883641331450     Delta-E=        0.000000000035 Rises=F Damp=F
 DIIS: error= 2.53D-09 at cycle   7 NSaved=   7.
 NSaved= 7 IEnMin= 6 EnMin= -998.883641331484     IErMin= 7 ErrMin= 2.53D-09
 ErrMax= 2.53D-09 EMaxC= 1.00D-01 BMatC= 1.25D-14 BMatP= 1.43D-13
 IDIUse=1 WtCom= 1.00D+00 WtEn= 0.00D+00
 Coeff-Com: -0.676D-02 0.307D-02 0.191D-01-0.337D-02-0.106D+00 0.869D-01
 Coeff-Com:  0.101D+01
 Coeff:     -0.676D-02 0.307D-02 0.191D-01-0.337D-02-0.106D+00 0.869D-01
 Coeff:      0.101D+01
 Gap=     0.400 Goal=   None    Shift=    0.000
 RMSDP=6.13D-09 MaxDP=1.19D-06 DE= 3.46D-11 OVMax= 4.47D-08

 Cycle  17  Pass 1  IDiag  1:
 RMSU=  1.55D-09    CP:  1.00D+00  1.68D+00  1.20D+00  1.49D+00  1.34D+00
                    CP:  1.22D+00  1.11D+00
 E= -998.883641331482     Delta-E=       -0.000000000032 Rises=F Damp=F
 DIIS: error= 6.44D-10 at cycle   8 NSaved=   8.
 NSaved= 8 IEnMin= 6 EnMin= -998.883641331484     IErMin= 8 ErrMin= 6.44D-10
 ErrMax= 6.44D-10 EMaxC= 1.00D-01 BMatC= 9.73D-16 BMatP= 1.25D-14
 IDIUse=1 WtCom= 1.00D+00 WtEn= 0.00D+00
 Coeff-Com: -0.284D-02 0.107D-02 0.785D-02 0.238D-02-0.371D-01-0.352D-01
 Coeff-Com:  0.194D+00 0.870D+00
 Coeff:     -0.284D-02 0.107D-02 0.785D-02 0.238D-02-0.371D-01-0.352D-01
 Coeff:      0.194D+00 0.870D+00
 Gap=     0.400 Goal=   None    Shift=    0.000
 RMSDP=1.23D-09 MaxDP=2.21D-07 DE=-3.23D-11 OVMax= 1.02D-08

 SCF Done:  E(RHF) =  -998.883641331     A.U. after   17 cycles
             Convg  =    0.1235D-08             -V/T =  2.0008
 KE= 9.980653422350D+02 PE=-6.965943176717D+03 EE= 2.650729803020D+03
 Leave Link  502 at Thu Oct  4 18:52:49 2018, MaxMem=  805306368 cpu:   24019.5
 (Enter /home/sugarlin1732/bin/g09c01//g09/l601.exe)
 Copying SCF densities to generalized density rwf, IOpCl= 0 IROHF=0.

 **********************************************************************

            Population analysis using the SCF density.

 **********************************************************************

 Alpha  occ. eigenvalues --  -20.51095 -15.57541 -15.56511 -11.33887 -11.26385
 Alpha  occ. eigenvalues --  -11.25667 -11.25517 -11.25482 -11.22886 -11.22831
 Alpha  occ. eigenvalues --  -11.22763 -11.22597 -11.22066 -11.21956 -11.21909
 Alpha  occ. eigenvalues --  -11.21880 -11.21858 -11.21808 -11.21764 -11.21735
 Alpha  occ. eigenvalues --  -11.21204 -11.21010 -11.20888 -11.20853  -1.35839
 Alpha  occ. eigenvalues --   -1.25586  -1.23487  -1.15408  -1.13660  -1.06653
 Alpha  occ. eigenvalues --   -1.04117  -1.03714  -1.03520  -1.00488  -0.98969
 Alpha  occ. eigenvalues --   -0.97080  -0.91576  -0.90740  -0.89324  -0.84129
 Alpha  occ. eigenvalues --   -0.81194  -0.80915  -0.79737  -0.79329  -0.77726
 Alpha  occ. eigenvalues --   -0.76872  -0.75932  -0.72393  -0.69678  -0.67995
 Alpha  occ. eigenvalues --   -0.65940  -0.65542  -0.63744  -0.63659  -0.63276
 Alpha  occ. eigenvalues --   -0.61874  -0.61490  -0.60970  -0.60409  -0.58656
 Alpha  occ. eigenvalues --   -0.58388  -0.57104  -0.56483  -0.56045  -0.55435
 Alpha  occ. eigenvalues --   -0.54981  -0.54548  -0.54121  -0.53658  -0.53359
 Alpha  occ. eigenvalues --   -0.50710  -0.49646  -0.48250  -0.47890  -0.47665
 Alpha  occ. eigenvalues --   -0.47540  -0.47264  -0.46884  -0.46383  -0.46092
 Alpha  occ. eigenvalues --   -0.46023  -0.45953  -0.45789  -0.45430  -0.44908
 Alpha  occ. eigenvalues --   -0.41732  -0.41078  -0.40374  -0.39670  -0.37335
 Alpha  occ. eigenvalues --   -0.36459
 Alpha virt. eigenvalues --    0.03554   0.04213   0.04461   0.04856   0.05407
 Alpha virt. eigenvalues --    0.05665   0.05860   0.06185   0.06607   0.07180
 Alpha virt. eigenvalues --    0.07206   0.07508   0.07796   0.08030   0.08552
 Alpha virt. eigenvalues --    0.08732   0.09306   0.09551   0.09756   0.10179
 Alpha virt. eigenvalues --    0.10531   0.10905   0.11137   0.11688   0.11911
 Alpha virt. eigenvalues --    0.12158   0.12234   0.12772   0.13183   0.14260
 Alpha virt. eigenvalues --    0.14326   0.14745   0.15486   0.16027   0.16304
 Alpha virt. eigenvalues --    0.16899   0.17162   0.17355   0.17858   0.18051
 Alpha virt. eigenvalues --    0.18504   0.18686   0.19033   0.19090   0.19265
 Alpha virt. eigenvalues --    0.19474   0.19818   0.19891   0.20037   0.20249
 Alpha virt. eigenvalues --    0.20407   0.20680   0.20880   0.21347   0.21786
 Alpha virt. eigenvalues --    0.21849   0.22119   0.22283   0.22433   0.22638
 Alpha virt. eigenvalues --    0.22790   0.22978   0.23290   0.23803   0.23889
 Alpha virt. eigenvalues --    0.23958   0.24386   0.24553   0.24779   0.25087
 Alpha virt. eigenvalues --    0.25297   0.25466   0.25744   0.25802   0.26020
 Alpha virt. eigenvalues --    0.26218   0.26365   0.26792   0.27084   0.27216
 Alpha virt. eigenvalues --    0.27365   0.27479   0.27731   0.28159   0.28338
 Alpha virt. eigenvalues --    0.28439   0.28708   0.29211   0.29384   0.29626
 Alpha virt. eigenvalues --    0.29819   0.29936   0.30042   0.30180   0.30387
 Alpha virt. eigenvalues --    0.31423   0.31457   0.31793   0.32031   0.32178
 Alpha virt. eigenvalues --    0.32458   0.33421   0.33890   0.34212   0.34247
 Alpha virt. eigenvalues --    0.34839   0.35098   0.35620   0.36057   0.36442
 Alpha virt. eigenvalues --    0.36924   0.37101   0.37531   0.37870   0.38232
 Alpha virt. eigenvalues --    0.38841   0.39049   0.39321   0.39917   0.40238
 Alpha virt. eigenvalues --    0.40683   0.41316   0.41742   0.41843   0.42428
 Alpha virt. eigenvalues --    0.43135   0.43453   0.43787   0.44122   0.44560
 Alpha virt. eigenvalues --    0.44702   0.44900   0.45333   0.45757   0.46132
 Alpha virt. eigenvalues --    0.46644   0.46855   0.47202   0.47409   0.47879
 Alpha virt. eigenvalues --    0.48040   0.48178   0.48891   0.49216   0.49315
 Alpha virt. eigenvalues --    0.49762   0.50452   0.50995   0.51258   0.51559
 Alpha virt. eigenvalues --    0.52153   0.52471   0.53060   0.53428   0.53913
 Alpha virt. eigenvalues --    0.53972   0.54621   0.54710   0.55110   0.55318
 Alpha virt. eigenvalues --    0.55722   0.56620   0.56965   0.57789   0.58336
 Alpha virt. eigenvalues --    0.58437   0.58573   0.58948   0.59380   0.59824
 Alpha virt. eigenvalues --    0.60046   0.60500   0.61067   0.61280   0.61457
 Alpha virt. eigenvalues --    0.61914   0.62513   0.63510   0.63641   0.64071
 Alpha virt. eigenvalues --    0.64812   0.65445   0.66033   0.66273   0.66810
 Alpha virt. eigenvalues --    0.67845   0.69144   0.69913   0.70266   0.73380
 Alpha virt. eigenvalues --    0.75338   0.76187   0.77748   0.90284   0.90369
 Alpha virt. eigenvalues --    0.91055   0.91891   0.92852   0.93215   0.94053
 Alpha virt. eigenvalues --    0.95308   0.95816   0.96227   0.96946   0.97222
 Alpha virt. eigenvalues --    0.97619   0.98726   0.99332   0.99736   1.00447
 Alpha virt. eigenvalues --    1.00758   1.01315   1.01965   1.02363   1.03016
 Alpha virt. eigenvalues --    1.03048   1.03802   1.03995   1.05125   1.05418
 Alpha virt. eigenvalues --    1.05529   1.05905   1.06888   1.08086   1.08427
 Alpha virt. eigenvalues --    1.08885   1.10157   1.10421   1.10587   1.10837
 Alpha virt. eigenvalues --    1.11471   1.12291   1.12666   1.14042   1.14097
 Alpha virt. eigenvalues --    1.14834   1.15821   1.16363   1.16873   1.17774
 Alpha virt. eigenvalues --    1.18960   1.19383   1.20344   1.22085   1.23733
 Alpha virt. eigenvalues --    1.24308   1.26391   1.27968   1.28475   1.29301
 Alpha virt. eigenvalues --    1.30019   1.30621   1.31156   1.31754   1.32185
 Alpha virt. eigenvalues --    1.32375   1.33086   1.33507   1.34357   1.34571
 Alpha virt. eigenvalues --    1.35923   1.36880   1.37140   1.37922   1.38245
 Alpha virt. eigenvalues --    1.38815   1.39278   1.40017   1.40558   1.40748
 Alpha virt. eigenvalues --    1.41338   1.41740   1.42104   1.42646   1.42970
 Alpha virt. eigenvalues --    1.43166   1.43629   1.44250   1.44597   1.44868
 Alpha virt. eigenvalues --    1.45190   1.45309   1.45610   1.45884   1.47143
 Alpha virt. eigenvalues --    1.47391   1.48530   1.48815   1.50284   1.51091
 Alpha virt. eigenvalues --    1.52064   1.53239   1.54219   1.55244   1.56720
 Alpha virt. eigenvalues --    1.57287   1.58361   1.59786   1.62433   1.64019
 Alpha virt. eigenvalues --    1.64517   1.65696   1.67778   1.68144   1.69855
 Alpha virt. eigenvalues --    1.69899   1.71457   1.73628   1.74381   1.76127
 Alpha virt. eigenvalues --    1.76788   1.77478   1.78071   1.78774   1.79125
 Alpha virt. eigenvalues --    1.79963   1.82627   1.82913   1.83612   1.85227
 Alpha virt. eigenvalues --    1.87100   1.88408   1.89434   1.91352   1.92452
 Alpha virt. eigenvalues --    1.95320   1.95558   1.97431   1.98336   1.99157
 Alpha virt. eigenvalues --    1.99788   2.00217   2.00856   2.01127   2.02509
 Alpha virt. eigenvalues --    2.03519   2.05888   2.07529   2.07963   2.09905
 Alpha virt. eigenvalues --    2.11291   2.12480   2.12848   2.13560   2.14585
 Alpha virt. eigenvalues --    2.14858   2.15543   2.16893   2.17101   2.17657
 Alpha virt. eigenvalues --    2.18217   2.18853   2.19419   2.19912   2.20180
 Alpha virt. eigenvalues --    2.20339   2.21234   2.23434   2.24712   2.25301
 Alpha virt. eigenvalues --    2.28049   2.28568   2.29320   2.29900   2.30583
 Alpha virt. eigenvalues --    2.31868   2.32321   2.32793   2.33180   2.33589
 Alpha virt. eigenvalues --    2.34498   2.35321   2.36149   2.36502   2.37638
 Alpha virt. eigenvalues --    2.37775   2.38588   2.39199   2.39842   2.41045
 Alpha virt. eigenvalues --    2.42078   2.42382   2.43072   2.43719   2.43962
 Alpha virt. eigenvalues --    2.45273   2.46439   2.46767   2.47183   2.47988
 Alpha virt. eigenvalues --    2.49130   2.51022   2.51537   2.51994   2.52585
 Alpha virt. eigenvalues --    2.52851   2.53405   2.54938   2.56216   2.56936
 Alpha virt. eigenvalues --    2.57086   2.59509   2.60949   2.61115   2.63297
 Alpha virt. eigenvalues --    2.63758   2.64596   2.66712   2.67409   2.67806
 Alpha virt. eigenvalues --    2.68290   2.69544   2.70864   2.71085   2.71630
 Alpha virt. eigenvalues --    2.72398   2.73239   2.73693   2.74113   2.74722
 Alpha virt. eigenvalues --    2.75518   2.76102   2.77071   2.77569   2.77994
 Alpha virt. eigenvalues --    2.78515   2.80433   2.80886   2.81539   2.81828
 Alpha virt. eigenvalues --    2.82928   2.83227   2.84345   2.85149   2.85607
 Alpha virt. eigenvalues --    2.87074   2.87178   2.87689   2.88350   2.88912
 Alpha virt. eigenvalues --    2.89568   2.90610   2.91093   2.91804   2.92321
 Alpha virt. eigenvalues --    2.93537   2.94037   2.94628   2.95220   2.96083
 Alpha virt. eigenvalues --    2.97196   2.97467   2.98192   2.99137   3.00215
 Alpha virt. eigenvalues --    3.02073   3.02760   3.04224   3.04647   3.05086
 Alpha virt. eigenvalues --    3.06552   3.07328   3.07485   3.09482   3.09941
 Alpha virt. eigenvalues --    3.10289   3.11210   3.12123   3.12385   3.12844
 Alpha virt. eigenvalues --    3.13652   3.14238   3.14909   3.15456   3.16243
 Alpha virt. eigenvalues --    3.17197   3.17968   3.18441   3.18809   3.19477
 Alpha virt. eigenvalues --    3.20056   3.20392   3.20543   3.21456   3.22176
 Alpha virt. eigenvalues --    3.23304   3.25129   3.26386   3.26483   3.28341
 Alpha virt. eigenvalues --    3.28740   3.29463   3.30131   3.30600   3.30974
 Alpha virt. eigenvalues --    3.31549   3.32600   3.33124   3.33538   3.35577
 Alpha virt. eigenvalues --    3.36174   3.37075   3.39621   3.40080   3.41917
 Alpha virt. eigenvalues --    3.43678   3.50418   3.53928   3.57999   3.60412
 Alpha virt. eigenvalues --    3.66164   3.67514   3.69964   3.71467   3.72787
 Alpha virt. eigenvalues --    3.73063   3.73432   3.73859   3.74610   3.77310
 Alpha virt. eigenvalues --    3.78295   3.78486   3.79842   3.80756   3.82780
 Alpha virt. eigenvalues --    3.84732   3.85859   3.89443   3.90349   3.91222
 Alpha virt. eigenvalues --    3.92241   3.92667   3.92788   3.93041   3.94505
 Alpha virt. eigenvalues --    3.94825   3.95914   3.96097   3.97156   3.97538
 Alpha virt. eigenvalues --    3.98180   3.99417   3.99744   4.03168   4.17062
 Alpha virt. eigenvalues --    4.82692   4.89645   4.92051   4.93995   4.94871
 Alpha virt. eigenvalues --    4.96555   4.97107   4.97443   5.00436   5.01416
 Alpha virt. eigenvalues --    5.03365   5.08617   5.10239   5.13836   5.27880
 Alpha virt. eigenvalues --    5.28142   5.29165   5.31105   5.32946   5.33540
 Alpha virt. eigenvalues --    5.42915   5.50549   5.51880   5.54863
          Condensed to atoms (all electrons):
 Mulliken atomic charges:
              1
     1  C   -0.383471
     2  C    0.127767
     3  C    0.012487
     4  C   -0.394208
     5  C   -0.403589
     6  C    0.398060
     7  C   -0.335303
     8  C    0.253861
     9  C   -0.396657
    10  C   -0.490167
    11  C   -0.355187
    12  C    0.545330
    13  O   -0.540380
    14  N   -0.035884
    15  C    0.090617
    16  C   -0.231575
    17  C   -0.168998
    18  C   -0.578256
    19  C    0.122826
    20  C   -0.069168
    21  C   -0.100601
    22  C   -0.363074
    23  C   -0.026462
    24  N   -0.465316
    25  H    0.110023
    26  H    0.099347
    27  H    0.164243
    28  H    0.163701
    29  H    0.065841
    30  H    0.125777
    31  H    0.106025
    32  H    0.121093
    33  H    0.206020
    34  H    0.109739
    35  H    0.103588
    36  H    0.245112
    37  H    0.137368
    38  H    0.089274
    39  H    0.166915
    40  H    0.183554
    41  H    0.103732
    42  H    0.089774
    43  H    0.106703
    44  H    0.119938
    45  H    0.127614
    46  H    0.129113
    47  H    0.159339
    48  H    0.091797
    49  H    0.149966
    50  H   -0.297695
    51  H    0.087836
    52  H    0.115743
    53  H    0.132108
    54  H    0.089415
    55  H    0.124531
    56  H    0.097221
    57  H    0.129456
    58  H    0.033138
 Sum of Mulliken atomic charges =   0.00000
 Mulliken charges with hydrogens summed into heavy atoms:
              1
     1  C   -0.174101
     2  C    0.292009
     3  C    0.176188
     4  C   -0.202590
     5  C   -0.176471
     6  C    0.604080
[...]
     35          1           0       11.604620   -9.976507    0.406323
     36          1           0       10.566381   -9.565002   -1.810633
     37          1           0        8.191189   -9.559510   -1.063359
     38          1           0        8.543758   -8.113425   -1.973394
     39          1           0       12.141786   -7.935630   -0.824861
     40          1           0       12.622926   -6.217178   -4.907497
     41          1           0        9.157355   -4.275933   -5.085136
     42          1           0       10.448745   -4.490679   -6.260720
     43          1           0        8.763883   -6.664128   -4.958069
     44          1           0        9.033164   -6.429054   -6.676629
     45          1           0       10.618462   -8.192575   -5.292649
     46          1           0       11.314253   -7.168767   -6.520460
     47          1           0       12.481046   -4.316296   -3.229596
     48          1           0       12.408378   -3.783766   -4.896334
     49          1           0       10.416777   -2.402514   -4.362356
     50          1           0       10.861160   -3.387884   -1.528399
     51          1           0        9.343144   -3.412311   -2.399444
     52          1           0        9.084408   -1.044240   -2.221650
     53          1           0        9.980676   -1.312831   -0.753006
     54          1           0       10.824568    0.197839   -3.085199
     55          1           0       11.796967   -0.094603   -1.671170
     56          1           0       12.865212   -1.971050   -2.633778
     57          1           0       12.490489   -1.148996   -4.131302
     58          1           0       10.424926   -6.160966   -2.332119
 ---------------------------------------------------------------------
 Rotational constants (GHZ):      0.3379601      0.1566019      0.1257919
 Leave Link  202 at Fri Oct  5 15:23:02 2018, MaxMem=  805306368 cpu:       0.0
 (Enter /home/sugarlin1732/bin/g09c01//g09/l601.exe)
 Copying SCF densities to generalized density rwf, IOpCl= 0 IROHF=0.

 **********************************************************************

            Population analysis using the SCF density.

 **********************************************************************

 Alpha  occ. eigenvalues --  -20.51327 -15.57186 -15.56025 -11.33084 -11.26048
 Alpha  occ. eigenvalues --  -11.25384 -11.25317 -11.25317 -11.22846 -11.22665
 Alpha  occ. eigenvalues --  -11.22657 -11.22579 -11.22126 -11.21986 -11.21983
 Alpha  occ. eigenvalues --  -11.21920 -11.21874 -11.21834 -11.21831 -11.21560
 Alpha  occ. eigenvalues --  -11.21474 -11.21277 -11.21130 -11.21035  -1.37747
 Alpha  occ. eigenvalues --   -1.25780  -1.22753  -1.15784  -1.13195  -1.06714
 Alpha  occ. eigenvalues --   -1.04162  -1.04064  -1.03620  -1.00216  -0.98827
 Alpha  occ. eigenvalues --   -0.96718  -0.91554  -0.91020  -0.89299  -0.83291
 Alpha  occ. eigenvalues --   -0.81309  -0.80780  -0.80082  -0.79521  -0.78028
 Alpha  occ. eigenvalues --   -0.76683  -0.75940  -0.72365  -0.69439  -0.68061
 Alpha  occ. eigenvalues --   -0.65905  -0.65196  -0.63952  -0.63264  -0.63018
 Alpha  occ. eigenvalues --   -0.61892  -0.61606  -0.61021  -0.59740  -0.58690
 Alpha  occ. eigenvalues --   -0.57668  -0.57290  -0.56415  -0.55998  -0.55452
 Alpha  occ. eigenvalues --   -0.55001  -0.54636  -0.54361  -0.54233  -0.53878
 Alpha  occ. eigenvalues --   -0.50933  -0.49696  -0.48709  -0.48275  -0.48190
 Alpha  occ. eigenvalues --   -0.47592  -0.47359  -0.46844  -0.46519  -0.46244
 Alpha  occ. eigenvalues --   -0.46130  -0.46029  -0.45766  -0.45692  -0.45219
 Alpha  occ. eigenvalues --   -0.41625  -0.41335  -0.40588  -0.40345  -0.36772
 Alpha  occ. eigenvalues --   -0.35688
 Alpha virt. eigenvalues --    0.03604   0.04218   0.04444   0.04858   0.05351
 Alpha virt. eigenvalues --    0.05584   0.05813   0.06273   0.06507   0.07008
 Alpha virt. eigenvalues --    0.07121   0.07468   0.07700   0.08007   0.08482
 Alpha virt. eigenvalues --    0.08876   0.09026   0.09285   0.09671   0.10147
 Alpha virt. eigenvalues --    0.10410   0.10660   0.11033   0.11535   0.11746
 Alpha virt. eigenvalues --    0.11839   0.12420   0.12596   0.13496   0.14335
 Alpha virt. eigenvalues --    0.14649   0.14811   0.14958   0.15697   0.16407
 Alpha virt. eigenvalues --    0.16651   0.17173   0.17409   0.17563   0.17782
 Alpha virt. eigenvalues --    0.18200   0.18578   0.18689   0.18995   0.19117
 Alpha virt. eigenvalues --    0.19383   0.19498   0.19625   0.19804   0.20094
 Alpha virt. eigenvalues --    0.20176   0.20692   0.20876   0.21149   0.21419
 Alpha virt. eigenvalues --    0.21744   0.22019   0.22096   0.22239   0.22621
 Alpha virt. eigenvalues --    0.22676   0.22864   0.23052   0.23228   0.23817
 Alpha virt. eigenvalues --    0.23984   0.24135   0.24451   0.24722   0.24931
 Alpha virt. eigenvalues --    0.24962   0.25008   0.25252   0.25420   0.25966
 Alpha virt. eigenvalues --    0.26226   0.26266   0.26552   0.26794   0.26866
 Alpha virt. eigenvalues --    0.27084   0.27132   0.27552   0.27825   0.27902
 Alpha virt. eigenvalues --    0.28323   0.28515   0.28651   0.29148   0.29416
 Alpha virt. eigenvalues --    0.29613   0.29638   0.29865   0.30256   0.30736
 Alpha virt. eigenvalues --    0.31067   0.31283   0.31451   0.32227   0.32506
 Alpha virt. eigenvalues --    0.33052   0.33339   0.33763   0.34082   0.34342
 Alpha virt. eigenvalues --    0.34617   0.35108   0.35535   0.35832   0.35949
 Alpha virt. eigenvalues --    0.36461   0.37157   0.37457   0.37597   0.38111
 Alpha virt. eigenvalues --    0.38805   0.38994   0.39224   0.39582   0.40163
 Alpha virt. eigenvalues --    0.40311   0.40909   0.41159   0.41811   0.42392
 Alpha virt. eigenvalues --    0.42579   0.43381   0.43508   0.43634   0.43829
 Alpha virt. eigenvalues --    0.44197   0.44748   0.45109   0.45519   0.45731
 Alpha virt. eigenvalues --    0.45920   0.46668   0.46737   0.46944   0.47404
 Alpha virt. eigenvalues --    0.47836   0.48214   0.48519   0.49041   0.49437
 Alpha virt. eigenvalues --    0.50121   0.50325   0.50876   0.51303   0.51715
 Alpha virt. eigenvalues --    0.51948   0.52356   0.52629   0.53006   0.53694
 Alpha virt. eigenvalues --    0.54255   0.54478   0.54768   0.55222   0.55462
 Alpha virt. eigenvalues --    0.55768   0.56537   0.56680   0.57378   0.58033
 Alpha virt. eigenvalues --    0.58261   0.58458   0.58705   0.58946   0.59425
 Alpha virt. eigenvalues --    0.59520   0.60106   0.60680   0.60856   0.60988
 Alpha virt. eigenvalues --    0.61625   0.61871   0.62054   0.63230   0.63769
 Alpha virt. eigenvalues --    0.63941   0.64672   0.65548   0.65981   0.66758
 Alpha virt. eigenvalues --    0.68285   0.68720   0.68885   0.69861   0.71131
 Alpha virt. eigenvalues --    0.74498   0.77061   0.79492   0.89176   0.89595
 Alpha virt. eigenvalues --    0.90340   0.92052   0.92944   0.93148   0.93866
 Alpha virt. eigenvalues --    0.95182   0.95517   0.96149   0.96422   0.97436
 Alpha virt. eigenvalues --    0.97529   0.97934   0.98730   0.99875   0.99944
 Alpha virt. eigenvalues --    1.00623   1.01346   1.01695   1.02044   1.02556
 Alpha virt. eigenvalues --    1.02983   1.03964   1.04338   1.04676   1.05085
 Alpha virt. eigenvalues --    1.06063   1.06769   1.07203   1.07350   1.08007
 Alpha virt. eigenvalues --    1.08951   1.09051   1.09800   1.10343   1.11412
 Alpha virt. eigenvalues --    1.11876   1.12007   1.12379   1.13529   1.14241
 Alpha virt. eigenvalues --    1.14866   1.15549   1.16304   1.16435   1.17703
 Alpha virt. eigenvalues --    1.18293   1.19393   1.20912   1.21220   1.23854
 Alpha virt. eigenvalues --    1.24835   1.26466   1.26969   1.28080   1.28468
 Alpha virt. eigenvalues --    1.29821   1.30524   1.30884   1.31255   1.31484
 Alpha virt. eigenvalues --    1.32416   1.32887   1.34143   1.34394   1.34630
 Alpha virt. eigenvalues --    1.36043   1.36650   1.36930   1.37204   1.37762
 Alpha virt. eigenvalues --    1.37915   1.38402   1.39276   1.39762   1.40015
 Alpha virt. eigenvalues --    1.40477   1.40865   1.41391   1.41711   1.41916
 Alpha virt. eigenvalues --    1.43007   1.43623   1.44111   1.44317   1.44793
 Alpha virt. eigenvalues --    1.45089   1.45270   1.45649   1.45982   1.46086
 Alpha virt. eigenvalues --    1.46475   1.47659   1.47784   1.49097   1.49337
 Alpha virt. eigenvalues --    1.50630   1.51848   1.52226   1.53535   1.56336
 Alpha virt. eigenvalues --    1.56669   1.57371   1.59471   1.61670   1.62997
 Alpha virt. eigenvalues --    1.64059   1.64901   1.66685   1.67935   1.69270
 Alpha virt. eigenvalues --    1.69543   1.70950   1.72082   1.73658   1.74209
 Alpha virt. eigenvalues --    1.76028   1.76960   1.77764   1.78065   1.78474
 Alpha virt. eigenvalues --    1.79271   1.80336   1.82330   1.82814   1.83677
 Alpha virt. eigenvalues --    1.85632   1.87252   1.89600   1.90005   1.91665
 Alpha virt. eigenvalues --    1.93047   1.94449   1.95055   1.95757   1.97429
 Alpha virt. eigenvalues --    1.98374   1.98795   2.00185   2.01622   2.02931
 Alpha virt. eigenvalues --    2.03191   2.04298   2.07531   2.07738   2.08814
 Alpha virt. eigenvalues --    2.10304   2.10904   2.12241   2.12923   2.13902
 Alpha virt. eigenvalues --    2.14730   2.15087   2.15451   2.16048   2.16552
 Alpha virt. eigenvalues --    2.16973   2.18345   2.18878   2.19220   2.20309
 Alpha virt. eigenvalues --    2.20913   2.21653   2.23217   2.23822   2.25832
 Alpha virt. eigenvalues --    2.26508   2.28230   2.28608   2.29131   2.29474
 Alpha virt. eigenvalues --    2.31337   2.32152   2.32660   2.33428   2.34076
 Alpha virt. eigenvalues --    2.34554   2.34916   2.35224   2.36818   2.37134
 Alpha virt. eigenvalues --    2.38007   2.38541   2.39355   2.39517   2.40609
 Alpha virt. eigenvalues --    2.41838   2.42283   2.42943   2.44075   2.45618
 Alpha virt. eigenvalues --    2.46404   2.47595   2.47847   2.48019   2.49535
 Alpha virt. eigenvalues --    2.50608   2.51845   2.52436   2.52930   2.53143
 Alpha virt. eigenvalues --    2.53599   2.54502   2.55151   2.55937   2.56470
 Alpha virt. eigenvalues --    2.57584   2.58145   2.59961   2.60622   2.61354
 Alpha virt. eigenvalues --    2.63122   2.64561   2.66020   2.66398   2.67244
 Alpha virt. eigenvalues --    2.67661   2.68042   2.69149   2.70624   2.71150
 Alpha virt. eigenvalues --    2.72412   2.72792   2.73315   2.73493   2.73990
 Alpha virt. eigenvalues --    2.74984   2.75247   2.76091   2.76827   2.77418
 Alpha virt. eigenvalues --    2.78450   2.80597   2.80761   2.81416   2.81826
 Alpha virt. eigenvalues --    2.82850   2.83224   2.84203   2.85246   2.85560
 Alpha virt. eigenvalues --    2.86065   2.86846   2.87053   2.87573   2.88520
 Alpha virt. eigenvalues --    2.88884   2.89889   2.90293   2.91761   2.92537
 Alpha virt. eigenvalues --    2.93214   2.94068   2.94419   2.94878   2.96165
 Alpha virt. eigenvalues --    2.97111   2.97855   2.99930   3.00453   3.00879
 Alpha virt. eigenvalues --    3.02654   3.03344   3.03945   3.04551   3.06020
 Alpha virt. eigenvalues --    3.06462   3.07536   3.08341   3.08705   3.09647
 Alpha virt. eigenvalues --    3.10970   3.11737   3.12843   3.13408   3.13558
 Alpha virt. eigenvalues --    3.13739   3.14426   3.14884   3.16246   3.16520
 Alpha virt. eigenvalues --    3.17074   3.17223   3.18153   3.18648   3.19769
 Alpha virt. eigenvalues --    3.20102   3.20552   3.21551   3.22517   3.22637
 Alpha virt. eigenvalues --    3.23628   3.24697   3.26614   3.27023   3.27648
 Alpha virt. eigenvalues --    3.28018   3.28197   3.29559   3.29999   3.31242
 Alpha virt. eigenvalues --    3.31879   3.32245   3.33154   3.33628   3.35644
 Alpha virt. eigenvalues --    3.36266   3.37122   3.38460   3.39215   3.41704
 Alpha virt. eigenvalues --    3.43282   3.47948   3.55336   3.58458   3.61178
 Alpha virt. eigenvalues --    3.67802   3.70260   3.71368   3.72172   3.72890
 Alpha virt. eigenvalues --    3.74137   3.74343   3.74688   3.75401   3.76932
 Alpha virt. eigenvalues --    3.77665   3.78581   3.79253   3.79825   3.82879
 Alpha virt. eigenvalues --    3.85189   3.86861   3.90558   3.91415   3.92117
 Alpha virt. eigenvalues --    3.92847   3.93342   3.93932   3.94518   3.95359
 Alpha virt. eigenvalues --    3.95623   3.96118   3.96635   3.98042   3.98168
 Alpha virt. eigenvalues --    3.99121   3.99392   3.99721   4.03824   4.08559
 Alpha virt. eigenvalues --    4.82387   4.89799   4.90181   4.92656   4.93857
 Alpha virt. eigenvalues --    4.95870   4.96083   4.97154   5.00677   5.00887
 Alpha virt. eigenvalues --    5.03333   5.08235   5.11236   5.18101   5.26778
 Alpha virt. eigenvalues --    5.27526   5.28119   5.29095   5.30780   5.32036
 Alpha virt. eigenvalues --    5.42022   5.50220   5.53706   5.54969
          Condensed to atoms (all electrons):
 Mulliken atomic charges:
              1
     1  C   -0.389984
     2  C    0.048385
     3  C    0.066622
     4  C   -0.335060
     5  C   -0.460351
     6  C    0.394247
     7  C   -0.384923
     8  C    0.533002
     9  C   -0.375718
    10  C   -1.105824
    11  C   -0.184199
    12  C    0.560097
    13  O   -0.533772
    14  N   -0.116435
    15  C    0.029255
    16  C   -0.196922
    17  C   -0.199034
    18  C   -0.498486
    19  C    0.069472
    20  C   -0.039771
    21  C   -0.221039
    22  C   -0.297409
    23  C   -0.168365
    24  N   -0.244405
    25  H    0.105795
    26  H    0.103150
    27  H    0.163805
    28  H    0.166233
    29  H    0.104899
    30  H    0.133589
    31  H    0.105609
    32  H    0.123557
    33  H    0.179724
    34  H    0.112084
    35  H    0.108861
    36  H    0.209633
    37  H    0.141385
    38  H    0.063930
    39  H    0.181247
    40  H    0.172657
    41  H    0.107753
    42  H    0.082300
    43  H    0.088265
    44  H    0.138815
    45  H    0.149689
    46  H    0.125641
    47  H    0.112794
    48  H    0.114119
    49  H    0.124936
    50  H   -0.035053
    51  H    0.042236
    52  H    0.108320
    53  H    0.126977
    54  H    0.096003
    55  H    0.117689
    56  H    0.108481
    57  H    0.116322
    58  H    0.149169
 Sum of Mulliken atomic charges =   0.00000
 Mulliken charges with hydrogens summed into heavy atoms:
              1
     1  C   -0.181038
     2  C    0.212190
     3  C    0.232856
     4  C   -0.096571
     5  C   -0.231186
     6  C    0.573972
     7  C   -0.163978
     8  C    0.742635
     9  C   -0.170403
    10  C   -0.924578
    11  C   -0.184199
    12  C    0.732754
    13  O   -0.533772
    14  N   -0.116435
    15  C    0.219309
    16  C    0.030158
    17  C    0.076296
    18  C   -0.271573
    19  C    0.194408
    20  C   -0.032589
    21  C    0.014258
    22  C   -0.083716
    23  C    0.056439
    24  N   -0.095236
 Sum of Mulliken charges with hydrogens summed into heavy atoms =   0.00000
 Electronic spatial extent (au):  <R**2>=         108097.2805
 Charge=              0.0000 electrons
 Dipole moment (field-independent basis, Debye):
    X=             -2.7640    Y=              2.9959    Z=             -0.0497  Tot=              4.0765
 Quadrupole moment (field-independent basis, Debye-Ang):
   XX=           -216.0356   YY=           -190.5952   ZZ=           -141.4670
   XY=             57.3309   XZ=              9.3736   YZ=            -12.1390
 Traceless Quadrupole moment (field-independent basis, Debye-Ang):
   XX=            -33.3364   YY=             -7.8959   ZZ=             41.2323
   XY=             57.3309   XZ=              9.3736   YZ=            -12.1390
 Octapole moment (field-independent basis, Debye-Ang**2):
  XXX=          -5921.8174  YYY=           3140.3226  ZZZ=            835.9551  XYY=          -2238.0893
  XXY=           1851.1823  XXZ=            533.0580  XZZ=          -1519.2190  YZZ=            897.3087
  YYZ=            470.9768  XYZ=           -217.2946
 Hexadecapole moment (field-independent basis, Debye-Ang**3):
 XXXX=        -120076.5542 YYYY=         -43338.0156 ZZZZ=          -8153.2435 XXXY=          42669.4475
 XXXZ=          14179.8248 YYYX=          34715.7997 YYYZ=          -6146.0089 ZZZX=           9330.6802
 ZZZY=          -4040.3167 XXYY=         -33402.8275 XXZZ=         -18073.9878 YYZZ=          -8256.7965
 XXYZ=          -4925.3777 YYXZ=           5909.3949 ZZXY=           9591.5343
 N-N= 2.278333823356D+03 E-N=-6.886208400521D+03  KE= 9.981755568607D+02
 No NMR shielding tensors so no spin-rotation constants.
 Leave Link  601 at Fri Oct  5 15:23:03 2018, MaxMem=  805306368 cpu:       6.6
 (Enter /home/sugarlin1732/bin/g09c01//g09/l9999.exe)
 1\1\GINC-I7864\FOpt\RHF\6-31++G(d,p)\C21H34N2O1\ROOT\05-Oct-2018\0\\#p
  opt hf/6-31++g(d,p) nosymm geom=connectivity\\BindingDB_50317213_mol_
 1\\0,1\C,8.6386027542,-8.5403740544,1.4602193822\C,8.3485255983,-7.776
 5403301,0.1587070695\C,10.1394277783,-8.8583790469,1.54875412\C,9.1540
 225257,-6.4678296185,0.144882552\C,10.9397630447,-7.5462500757,1.52797
 58446\C,10.6590049936,-6.7823866592,0.2223208361\C,10.5487091969,-9.72
 15832503,0.3451926083\C,10.2652128871,-8.9609836933,-0.9606480932\C,8.
 7657349643,-8.6354663681,-1.0456701945\C,11.10126901,-7.6654407528,-0.
 957777596\C,11.8215515074,-7.227397866,-3.2618944987\C,11.6207876476,-
 6.3885061001,-4.5219155854\O,12.6395744686,-8.1176713599,-3.263186267\
 N,10.9099675282,-5.1306486912,-4.2924951166\C,9.9646206026,-4.93424995
 41,-5.3838521299\C,9.4927287623,-6.3464228509,-5.6977382792\C,10.78367
 79901,-7.1605261757,-5.5747748182\C,11.7959013923,-4.0106553632,-4.015
 9838805\C,11.0814417813,-2.7400190369,-3.5673158776\C,10.2683145914,-2
 .8599708255,-2.2736696019\C,10.0326424965,-1.4039224665,-1.8329599107\
 C,11.2049238026,-0.5852961261,-2.4365005725\C,12.0474258115,-1.5914342
 311,-3.2441980083\N,11.0298460571,-6.941487953,-2.2177769757\H,8.05951
 98286,-9.4614765622,1.4889836547\H,8.3299175734,-7.9466357701,2.318951
 0346\H,7.2862733173,-7.5498880611,0.097334423\H,10.3462756979,-9.39492
 05766,2.4720617798\H,8.9153277113,-5.894735472,-0.7486487375\H,8.87191
 84981,-5.8424744411,0.9895264462\H,12.0037901955,-7.7544118951,1.61725
 16683\H,10.6667017108,-6.9273928134,2.380386998\H,11.2333184005,-5.858
 6505248,0.2094740182\H,9.9980073058,-10.659965501,0.3534198319\H,11.60
 46197535,-9.9765074377,0.4063229768\H,10.5663806127,-9.5650018218,-1.8
 106333204\H,8.1911894071,-9.5595098944,-1.0633588775\H,8.5437584851,-8
 .1134247815,-1.9733938722\H,12.1417859059,-7.9356299398,-0.8248608629\
 H,12.6229259062,-6.217178342,-4.9074968491\H,9.1573554528,-4.275932941
 3,-5.0851363417\H,10.4487445765,-4.4906793852,-6.2607195052\H,8.763883
 3425,-6.6641283616,-4.9580692296\H,9.0331636012,-6.4290537451,-6.67662
 8724\H,10.6184621407,-8.1925745261,-5.2926486577\H,11.3142526101,-7.16
 8767341,-6.5204598034\H,12.4810459565,-4.316295814,-3.2295956517\H,12.
 4083779771,-3.7837663636,-4.8963341815\H,10.416776815,-2.402514315,-4.
 3623559115\H,10.8611598491,-3.3878835965,-1.5283992771\H,9.34314425,-3
 .4123105678,-2.3994438125\H,9.0844077218,-1.0442396155,-2.2216498562\H
 ,9.9806761111,-1.3128308285,-0.7530055373\H,10.8245679405,0.1978385672
 ,-3.0851991403\H,11.7969672041,-0.0946032572,-1.6711698624\H,12.865212
 3379,-1.9710500788,-2.6337784369\H,12.4904885266,-1.1489955759,-4.1313
 020606\H,10.4249260839,-6.1609655702,-2.3321193291\\Version=EM64L-G09R
 evC.01\HF=-998.9044468\RMSD=6.201e-09\RMSF=1.655e-06\Dipole=-1.0874221
 ,1.1786904,-0.0195374\Quadrupole=-24.7847634,-5.8704357,30.6551992,42.
 6241281,6.9690127,-9.025074\PG=C01 [X(C21H34N2O1)]\\@


 There are more things in heaven and earth, Horatio,
 than are dreamt of in your philosophy.
                   -- Hamlet, Act I, Scene 5
 The chemist is a guest at the physicist's table and
 frequently dines well.
                   -- Richard Bersohn
 Job cpu time:  7 days  1 hours 40 minutes 29.6 seconds.
 File lengths (MBytes):  RWF=    275 Int=      0 D2E=      0 Chk=     31 Scr=      1
 Normal termination of Gaussian 09 at Fri Oct  5 15:23:05 2018.
